# vtk DataFile Version 4.1 
COMMENT
ASCII
DATASET STRUCTURED_POINTS 
DIMENSIONS 100 100 1 
ORIGIN 0 0 0
SPACING 0.12693303650867893 0.12693303650867893 0 
POINT_DATA 10000
SCALARS U double 1
LOOKUP_TABLE default
0.0
0.0
0.0
0.0
0.0
0.0
0.0
0.0
0.0
0.0
0.0
0.0
0.0
0.0
0.0
0.0
0.0
0.0
0.0
0.0
0.0
0.0
0.0
0.0
0.0
0.0
0.0
0.0
0.0
0.0
0.0
0.0
0.0
0.0
0.0
0.0
0.0
0.0
0.0
0.0
0.0
0.0
0.0
0.0
0.0
0.0
0.0
0.0
0.0
0.0
0.0
0.0
0.0
0.0
0.0
0.0
0.0
0.0
0.0
0.0
0.0
0.0
0.0
0.0
0.0
0.0
0.0
0.0
0.0
0.0
0.0
0.0
0.0
0.0
0.0
0.0
0.0
0.0
0.0
0.0
0.0
0.0
0.0
0.0
0.0
0.0
0.0
0.0
0.0
0.0
0.0
0.0
0.0
0.0
0.0
0.0
0.0
0.0
0.0
0.0
2.4960981953520717e-12
-1.224299613903335e-09
-1.3629262041008238e-08
-7.763838071068973e-08
-3.1743047296621474e-07
-1.0508154893315811e-06
-2.9896135241541177e-06
-7.5698628635430335e-06
-1.745049961243201e-05
-3.7209714537737785e-05
-7.424872653090168e-05
-0.00013988391518066046
-0.00025057302238007346
-0.0004291842542109048
-0.0007061844953600028
-0.0011206004304247746
-0.0017205989919985233
-0.002563544032119393
-0.003715414671723919
-0.005249515017320696
-0.007244460214351411
-0.009781484038806144
-0.01294117180303094
-0.016799773091186458
-0.021425286790916286
-0.026873532847850275
-0.03318442990626815
-0.04037868617582967
-0.04845508472941038
-0.057388507363106814
-0.0671287971091025
-0.07760051255390814
-0.08870358101785224
-0.10031481549719831
-0.11229022433844932
-0.12446801430576258
-0.13667216757829517
-0.14871646111102937
-0.16040879197972252
-0.17155567368661348
-0.18196677458820096
-0.19145937921480605
-0.19986266494139146
-0.20702169905856374
-0.2128010738306759
-0.21708810893904168
-0.21979556141695816
-0.2208637927199108
-0.22026235116225978
-0.21799093607018938
-0.21407971831586672
-0.20858900114854234
-0.20160821606965265
-0.19325426124327189
-0.18366920436809622
-0.17301738708317857
-0.16148198204822595
-0.14926106447218412
-0.13656326479263023
-0.12360306736489951
-0.1105958129181949
-0.09775245545232271
-0.08527412643821182
-0.07334658229685301
-0.06213466532243402
-0.05177699636141716
-0.04238122925053907
-0.0340203052406998
-0.02673020932988131
-0.020509704751486172
-0.015322374869590816
-0.011101032241574478
-0.00775420320714474
-0.005174041959759546
-0.0032447672555794083
-0.0018506293118693352
-0.0008825382639394447
-0.00024278840513144079
0.00015229300384675512
0.00037157029750045173
0.000469739962925041
0.0004888388257521778
0.0004601300027137169
0.0004060241929950121
0.000341856114005798
0.0002774571069657248
0.00021852463472262125
0.00016779957023328157
0.00012605071594204732
9.285785718107667e-05
6.719075927189592e-05
4.779859593176706e-05
3.3442165710735914e-05
2.3011162839891877e-05
1.556789424147292e-05
1.0349713858831075e-05
6.7488058504242825e-06
4.267157116246881e-06
2.3865082897341334e-06
1.0411603988138584e-07
5.11985210967295e-12
-4.262276895761258e-09
-3.831820027829849e-08
-1.9252590960142764e-07
-7.173471260464134e-07
-2.201052055621991e-06
-5.864682767926381e-06
-1.4005185054375288e-05
-3.060433774743605e-05
-6.209806357109774e-05
-0.0001182700539968422
-0.00021319987340175133
-0.000366164884054572
-0.0006023738368663607
-0.000953403114917581
-0.0014572174419492567
-0.0021576854493056265
-0.0031035438667659735
-0.00434681681279755
-0.005940751777698941
-0.007937384231978865
-0.010384882080072932
-0.013324844964232939
-0.016789739580794424
-0.02080064097950247
-0.02536542365241767
-0.0304775089821758
-0.036115232028109116
-0.042241845514037056
-0.048806136588404235
-0.05574359588739929
-0.06297805093177164
-0.07042365802581167
-0.07798713861611609
-0.08557014664673333
-0.09307166133987387
-0.10039031321518112
-0.10742656810904956
-0.11408471263189003
-0.12027460329471819
-0.12591315914032034
-0.1309255931537479
-0.13524639034766747
-0.13882004984927826
-0.14160161442082336
-0.14355701367580465
-0.14466324701005995
-0.14490842929097228
-0.1442917171308948
-0.14282312679682557
-0.14052324741454605
-0.13742284635634722
-0.1335623591163998
-0.12899125534675412
-0.12376727774036927
-0.11795556217754864
-0.11162766566506868
-0.10486055044530757
-0.09773559256046158
-0.09033769241909036
-0.08275455311314237
-0.07507615033357433
-0.06739434278972518
-0.05980247245068439
-0.052394702962418355
-0.045264779285695694
-0.03850390464747743
-0.03219755547243471
-0.026421296055899553
-0.02123597456035184
-0.016682998385181003
-0.012780591641276245
-0.009521931642690593
-0.006875798946447498
-0.004789894305256802
-0.003196398975217598
-0.0020188547951261395
-0.0011791770575692625
-0.0006036693810624749
-0.00022725640975286717
4.342422885185242e-06
0.00013428207868939547
0.00019555916058369813
0.0002126349042519606
0.0002031775833747084
0.0001796028600410431
0.00015030615321752055
0.00012062299000964474
9.360202503234472e-05
7.065679149816659e-05
5.212011692049001e-05
3.769457756323237e-05
2.678658827878499e-05
1.8724590815296957e-05
1.2879098264808635e-05
8.71250809348705e-06
5.7847437975675724e-06
3.7236309883465262e-06
2.113756296675039e-06
9.439438474888723e-08
5.411763386571485e-12
-1.388818253236782e-08
-1.0989997274495685e-07
-5.10514529610907e-07
-1.7964852725070663e-06
-5.269134237706895e-06
-1.3527028537863847e-05
-3.130158171882615e-05
-6.656965206933755e-05
-0.00013192096623668333
-0.00024610899270746493
-0.0004356633975062803
-0.0007363994653070515
-0.0011946333607684228
-0.0018679080070911436
-0.0028250552513439113
-0.004145464390399224
-0.005917489877918196
-0.008236004307742998
-0.011199177550722052
-0.014904630479195985
-0.019445164874896094
-0.024904305118171103
-0.03135190009176183
-0.03884002603009292
-0.04739940559231627
-0.057036519487452586
-0.06773153949796194
-0.07943716071729985
-0.09207836069121124
-0.10555306749359698
-0.11973368007166356
-0.13446935387998565
-0.14958894333900769
-0.16490447966651126
-0.18021505723977052
-0.19531100259858789
-0.20997820608005796
-0.22400250545886696
-0.2371740225242352
-0.2492913660941917
-0.2601656275865811
-0.26962410717575985
-0.2775137191975872
-0.2837040344225838
-0.2880899238334916
-0.290593773460539
-0.2911672425718116
-0.28979253809291333
-0.28648317664845996
-0.28128420235691703
-0.27427182404395695
-0.26555243092530445
-0.25526094282113476
-0.24355845230203468
-0.23062912552443532
-0.21667635029026536
-0.20191815830248003
-0.1865820061625925
-0.17089907481007657
-0.15509833180865332
-0.13940067909945505
-0.12401355732509411
-0.10912637069036558
-0.09490701369614057
-0.0814996203340327
-0.06902344179637829
-0.05757254421338074
-0.04721587664571978
-0.03799726075116836
-0.02993503087492256
-0.02302137809299807
-0.01722182621918772
-0.01247554904494297
-0.008697289993707186
-0.005781400278424713
-0.00360801307252051
-0.002050772292922242
-0.0009850454714162933
-0.00029535317549708246
0.00011908152004386265
0.00034128497570970224
0.0004360038045497325
0.00045118735707967543
0.0004206834705189569
0.00036733631772186207
0.00030587680328001023
0.00024528657883653626
0.0001905745624713028
0.00014405957167007338
0.00010629804315345026
7.6769882024e-05
5.438762826352549e-05
3.785878799820733e-05
2.591876509300952e-05
1.7454601052054383e-05
1.1542398356666126e-05
7.4030968419008434e-06
4.186571761401523e-06
1.8383142959902559e-07
-1.694403013483414e-11
-4.092194437654159e-08
-2.9047851577773666e-07
-1.2528839365900913e-06
-4.160799240654325e-06
-1.1626940056182086e-05
-2.8616170513475506e-05
-6.376461467170662e-05
-0.0001310175681244754
-0.0002514900844459795
-0.0004553845058463132
-0.0007837415737457306
-0.0012897689093057665
-0.0020394916415131894
-0.003111508015474846
-0.004595704654328875
-0.006590882681763029
-0.009201354074915792
-0.012532672845168107
-0.01668675439554502
-0.02175669823441304
-0.027821658088600484
-0.03494209810999457
-0.043155737454416275
-0.05247442455238741
-0.06288210544374385
-0.07433396680527887
-0.08675675236886664
-0.10005017841487114
-0.11408931500621584
-0.12872775747045317
-0.143801388132473
-0.1591325205069454
-0.17453422485976441
-0.18981465223897176
-0.20478120042465056
-0.2192443964663438
-0.23302140359925388
-0.24593909288469734
-0.25783665000777345
-0.2685677139660964
-0.27800206610639694
-0.28602690476437675
-0.2925477526366089
-0.2974890512050155
-0.3007944994384558
-0.3024271930747566
-0.3023696165033724
-0.30062353203197356
-0.2972098014396233
-0.2921681623783241
-0.2855569674397574
-0.27745287653578576
-0.2679504736977661
-0.25716175787450707
-0.2452154349776324
-0.23225591779862417
-0.2184419258639538
-0.20394457515776385
-0.18894486560236443
-0.17363051931615525
-0.15819219811842514
-0.14281922962194496
-0.12769508117452724
-0.11299291167291305
-0.09887156790483861
-0.08547234424980346
-0.07291668219566311
-0.06130477322304351
-0.050714807091287686
-0.04120246392745402
-0.03280026269085148
-0.025516584045501264
-0.01933453889182673
-0.01421123246974837
-0.01007821400809023
-0.006843864821712676
-0.004398120072794167
-0.002619328936545979
-0.0013824321512399818
-0.0005672055195641197
-6.524795799226461e-05
0.0002152902995065625
0.00034766210432829464
0.00038695065062305413
0.00037228632216390747
0.00032997666100955335
0.00027675797082452877
0.00022263944101327132
0.0001731137692916561
0.00013074328036417272
9.625130033631213e-05
6.926856476548098e-05
4.884883994003852e-05
3.382152332947865e-05
2.301659399985762e-05
1.5379400308142093e-05
9.964619175317597e-06
5.6789882763820445e-06
2.499116687673837e-07
-1.3457727091913616e-10
-1.1128500838637176e-07
-7.216823864956201e-07
-2.917934759225402e-06
-9.204811320333538e-06
-2.463331109263247e-05
-5.8388914220601726e-05
-0.0001258258841312841
-0.0002508450029998854
-0.0004684179957615834
-0.0008269809522292734
-0.0013903692640834847
-0.002238960876128124
-0.003469737896194176
-0.00519506465588848
-0.007540101020462919
-0.01063890566982085
-0.014629416009188661
-0.019647601854684647
-0.02582116611403978
-0.03326320046014606
-0.04206619695131437
-0.05229677270001519
-0.0639913930015915
-0.07715328982506063
-0.09175067845966381
-0.10771628532398363
-0.12494812210562962
-0.14331138038406593
-0.16264127883945115
-0.18274667184596236
-0.20341422168478293
-0.22441294365399395
-0.24549895035088753
-0.26642024470632697
-0.28692143768028905
-0.3067482931966418
-0.32565202790562875
-0.34339331539594037
-0.35974596281640797
-0.3745002422743981
-0.38746586996887583
-0.39847463313121706
-0.4073826689453883
-0.4140724011969899
-0.41845413993710767
-0.4204673473762483
-0.42008156993165285
-0.41729703218789166
-0.412144883833139
-0.4046870857483447
-0.39501591671783914
-0.38325307806504044
-0.36954837022641723
-0.3540779131087215
-0.3370418811900183
-0.31866172491062095
-0.2991768524731087
-0.2788407520946978
-0.25791654683154563
-0.23667199687048524
-0.21537400340347515
-0.19428272880982714
-0.1736455303886303
-0.15369100087886542
-0.13462349770326706
-0.11661859186057313
-0.099819840110468
-0.08433715449339858
-0.07024681374006582
-0.05759287575452521
-0.046389492864809354
-0.036623502495137975
-0.028256741856624145
-0.021227825138680843
-0.015453543360439796
-0.010830442801240977
-0.0072373318040268135
-0.004539342282295646
-0.00259373970014418
-0.0012570774675239602
-0.00039275547740783283
0.00012221880441567575
0.00039234971977553513
0.0005012863790145973
0.0005119963923228198
0.00046896464959463025
0.0004015888104526431
0.0003279157838759089
0.0002580623106705532
0.00019696322789456084
0.00014636877960723968
0.00010619202712007144
7.537584642566909e-05
5.243740866343766e-05
3.580071498590867e-05
2.3973898901887213e-05
1.5557074880012164e-05
8.868729438807729e-06
3.881754970172541e-07
-5.632595699475914e-10
-2.821582781423728e-07
-1.6923242240363918e-06
-6.454975089840049e-06
-1.9417142256134173e-05
-4.9890543062624436e-05
-0.00011408629452625539
-0.00023803221044378322
-0.00046073340200792696
-0.000837221881154409
-0.0014410661036798516
-0.00236589653184862
-0.003725556649005184
-0.005652605591386266
-0.008295062056540172
-0.011811464847116438
-0.0163645059874832
-0.02211364287860587
-0.029207197961346004
-0.03777449812872345
-0.04791859111074685
-0.05971000962318411
-0.07318194920332638
-0.08832709816800527
-0.1050962240234927
-0.12339849399475229
-0.14310339885929338
-0.1640440657689404
-0.1860216901430832
-0.2088107886072738
-0.23216497140933176
-0.25582294925431553
-0.2795145208064212
-0.30296632792902956
-0.325907211278567
-0.34807304513915766
-0.3692109743288067
-0.3890830155114533
-0.4074690190495269
-0.424169015067719
-0.4390049886431002
-0.45182214432883055
-0.462489730115348
-0.4709014960848146
-0.47697586407057146
-0.4806558821727457
-0.48190903247090777
-0.48072695205157173
-0.4771251167425237
-0.47114252382995275
-0.46284139459444196
-0.4523068998346159
-0.43964689187288153
-0.4249916053004868
-0.40849326667491753
-0.390325531657455
-0.37068264819167807
-0.3497782281984791
-0.32784350027972614
-0.3051249150689581
-0.2818809869846118
-0.2583782860904327
-0.23488654710851095
-0.21167294421823257
-0.18899569130580066
-0.16709726101520997
-0.14619765322013503
-0.1264882515052216
-0.1081268427689693
-0.09123430130166484
-0.0758932379720516
-0.06214861125427678
-0.050009961158455546
-0.03945466526622388
-0.030431531759548564
-0.022864191650365358
-0.016654097890685705
-0.011683357223580604
-0.00781793473296472
-0.00491182745630182
-0.0028125473488422583
-0.0013677664070382237
-0.0004324488928687975
0.00012455321934231968
0.00041548622183832095
0.000530987362380333
0.0005398757010952162
0.0004910847193508602
0.00041700174374897795
0.00033736318043490847
0.00026298153859685594
0.00019884938937979335
0.00014645378852010154
0.00010535094510585767
7.415999786019124e-05
5.114981155563192e-05
3.454456716380997e-05
2.2563698524481934e-05
1.2907764623216178e-05
5.636317855445262e-07
-1.8654838009200643e-09
-6.722456182211295e-07
-3.764028009499126e-06
-1.361600464641525e-05
-3.919535059317838e-05
-9.694660551894357e-05
-0.00021431812195827024
-0.0004336905558637591
-0.000816272920367709
-0.0014454216049771256
-0.002428806679035298
-0.0038989110894135756
-0.006011496547986599
-0.008941882429030356
-0.012879126805256153
-0.01801843388285032
-0.024552305254981557
-0.03266107881188395
-0.042503546760470745
-0.054208313967733505
-0.06786646163242213
-0.08352593832494472
-0.10118793313197731
-0.12080531579967098
-0.14228307465840195
-0.16548055773641468
-0.1902152329948463
-0.2162676317596775
-0.2433871224975954
-0.271298174351834
-0.29970680395347954
-0.32830694718715686
-0.3567865526018888
-0.3848332489744787
-0.4121394915911059
-0.43840713708371626
-0.46335143351383323
-0.486704440368048
-0.5082179126132778
-0.5276656949261553
-0.5448456779442628
-0.5595813692762388
-0.5717231293916938
-0.5811491175772993
-0.5877659868701908
-0.5915093600110486
-0.5923441115144646
-0.5902644742391524
-0.5852939824731072
-0.5774852574877875
-0.5669196355912728
-0.5537066326605272
-0.5379832326469451
-0.5199129803269015
-0.4996848503962463
-0.4775118558471401
-0.4536293486541446
-0.4282929557429397
-0.40177608410153465
-0.3743669224024303
-0.3463648651062746
-0.3180762922287186
-0.2898096585456914
-0.26186988587200716
-0.23455211712928295
-0.20813498475696596
-0.1828736656675971
-0.15899312626572853
-0.13668207570447738
-0.11608820306453421
-0.09731523177473346
-0.08042215490148481
-0.0654247257579616
-0.05229892535706485
-0.04098580956779522
-0.03139696569946146
-0.023419859140848258
-0.016922627323796124
-0.011758287869477429
-0.007768708310911526
-0.004788869732057261
-0.0026518522875260773
-0.0011946071273912602
-0.00026410601041466567
0.00027691854270860193
0.0005455462823530557
0.0006362599795034521
0.0006208228501254529
0.0005502091921289668
0.0004579641614117969
0.0003642018763435396
0.00027951878373705386
0.0002083264245238957
0.00015138301450072652
0.00010753098109736965
7.47770714854928e-05
5.087105399660409e-05
3.342482972803251e-05
1.9180096381805497e-05
8.342516924918897e-07
-5.368188967649413e-09
-1.514034649256988e-06
-7.97135120478613e-06
-2.746558986948089e-05
-7.588383758814272e-05
-0.00018107567366212245
-0.0003876453077436315
-0.0007618464619171132
-0.0013958936760592262
-0.002410942838063487
-0.003958057492193575
-0.00621666130288029
-0.009390251597088596
-0.013699467814619299
-0.019372919533844218
-0.026636434012411597
-0.035701548804159294
-0.04675413481587541
-0.0599439911796532
-0.07537612259461716
-0.09310421913997975
-0.1131266386161986
-0.13538497139054856
-0.15976507128987188
-0.1861002795460212
-0.21417646037701152
-0.2437384074711887
-0.2744971658248785
-0.30613783482703966
-0.33832746623682136
-0.37072273470424316
-0.4029771297334589
-0.4347474892117987
-0.465699760561862
-0.4955139329098825
-0.5238881307881036
-0.5505418965145813
-0.5752187151629334
-0.5976878541526198
-0.6177456004220243
-0.6352159833874372
-0.6499510728131812
-0.6618309384805634
-0.6707633540526663
-0.6766833214377694
-0.6795524846685079
-0.6793584940418014
-0.6761143720424583
-0.6698579223088794
-0.6606512114146178
-0.6485801403183128
-0.6337541077745235
-0.6163057516739332
-0.5963907362162689
-0.5741875332661678
-0.5498971257683621
-0.523742540662074
-0.495968099737522
-0.46683826117933735
-0.4366359144277835
-0.40565998911277384
-0.3742222481564054
-0.34264315901225356
-0.31124677909435916
-0.28035465563669826
-0.25027882985454575
-0.22131415125017562
-0.1937302453926151
-0.1677636228757676
-0.1436105409905922
-0.12142129382748357
-0.10129656844153884
-0.08328633405795595
-0.06739142959932204
-0.05356762992910429
-0.04173159597579207
-0.03176786236671307
-0.023535980870619564
-0.016877144302700247
-0.011619997089484002
-0.007585751235484452
-0.004593002838854754
-0.0024626684270696924
-0.0010232244539051482
-0.00011604703588286728
0.00039970806471441045
0.0006434064899511568
0.0007110267535102839
0.0006753096305771183
0.000587797718959014
0.0004822306760200755
0.00037857887394216724
0.00028702804653395057
0.00021141644797473955
0.00015187711522319567
0.00010665563891498591
7.318606289072025e-05
4.842708579585376e-05
2.7896543915009788e-05
1.2092044922320783e-06
-1.3954192017242084e-08
-3.2390189388048784e-06
-1.6128275899931948e-05
-5.3122317592217794e-05
-0.00014122910452320027
-0.0003257568975337853
-0.0006763845002288405
-0.0012927138945357925
-0.002308347701200564
-0.0038925905305456803
-0.006249095243749808
-0.0096111252134451
-0.014233519191088256
-0.02038185395687836
-0.028319635472672036
-0.038294564483623644
-0.05052499547063909
-0.06518764226352955
-0.08240740413300478
-0.10224993061224165
-0.124717254103529
-0.14974653605546023
-0.17721172646934463
-0.20692774804217245
-0.23865669436795536
-0.2721154754046412
-0.30698434462206686
-0.3429157881796462
-0.3795433327131599
-0.41648992086742437
-0.4533756005781143
-0.4898243660252777
-0.5254700688829456
-0.5599613844875166
-0.5929658676752255
-0.6241731678662944
-0.6532974942200063
-0.680079431698923
-0.7042872102226649
-0.7257175242366558
-0.7441959911677933
-0.7595773262113241
-0.7717452991103021
-0.7806125270807287
-0.786120147482998
-0.7882374046285171
-0.786961177377763
-0.7823154678678871
-0.774350866568225
-0.7631440045163587
-0.7487969995204085
-0.7314368986983327
-0.7112151142559231
-0.6883068421496077
-0.6629104435661954
-0.635246756492244
-0.6055582888991381
-0.5741082266233803
-0.5411791689699923
-0.5070714853494968
-0.47210116971620175
-0.43659705990186776
-0.40089729053716994
-0.3653448660090373
-0.33028227886887596
-0.2960451639829636
-0.2629550728257727
-0.23131157571069225
-0.20138404623691958
-0.1734036358093233
-0.1475560784308688
-0.12397603759571328
-0.10274367500456258
-0.08388395322251038
-0.0673688795354006
-0.05312249912470713
-0.041028040679191205
-0.03093632002495137
-0.02267441601631964
-0.01605378731190347
-0.010877351071940298
-0.006945467544330534
-0.004061107165364713
-0.0020345936000945876
-0.000688184923856495
0.00013954574124338615
0.00058988600911994
0.0007812493682455067
0.0008080122572945957
0.0007411459231438464
0.000630504191927103
0.0005083052608646823
0.0003931705731784799
0.00029409349227004216
0.00021386620051349969
0.00015170757641134935
0.00010499716198354624
6.996493060519788e-05
4.0460243309112274e-05
1.7469306338417182e-06
-3.345682989079434e-08
-6.608551749233342e-06
-3.12684210540606e-05
-9.875541666632937e-05
-0.0002531987641194696
-0.0005655069124218972
-0.0011404334538535168
-0.0021220854445408357
-0.0036966899197732966
-0.006091690969785224
-0.009570688187072894
-0.014424264413608404
-0.02095728725547531
-0.029473712900712497
-0.040260206200918115
-0.05356998706351225
-0.0696082252688156
-0.08852006829893766
-0.11038205192756026
-0.13519726905701043
-0.16289431152075387
-0.19332969299404923
-0.22629323381666028
-0.26151574981082953
-0.29867833327678245
-0.3374225321368556
-0.37736080440121467
-0.4180867300701178
-0.4591845830638017
-0.5002379868568131
-0.5408374883735326
-0.580586978706013
-0.6191089633176409
-0.6560487384183188
-0.6910775659254488
-0.7238949597849574
-0.7542302047986145
-0.78184322882012
-0.8065249432012678
-0.8280971571038914
-0.8464121605587459
-0.8613520601971844
-0.8728279411641582
-0.8807789192120151
-0.8851711384563512
-0.8859967626351727
-0.883273000715666
-0.8770412010367232
-0.8673660415249108
-0.8543348365296334
-0.8380569731377471
-0.8186634810954292
-0.7963067303349038
-0.7711602382412873
-0.7434185549156279
-0.713297178620068
-0.6810324353616762
-0.6468812365523002
-0.6111206077357616
-0.5740468610176105
-0.5359742663621627
-0.49723306546024476
-0.45816667030754005
-0.4191279014291095
-0.38047415255772127
-0.34256142403780726
-0.30573724991546036
-0.27033265522026373
-0.23665341815501878
-0.20497106813140845
-0.17551420674265386
-0.14846086550010765
-0.1239326725168592
-0.10199154924410878
-0.08263946872243662
-0.06582147887239677
-0.05143177153037066
-0.039322147449742356
-0.02931190133074876
-0.021198028873864145
-0.014764784914653864
-0.009791960215277796
-0.006061678300980405
-0.003363889133103142
-0.0015009251367577075
-0.00029144044380626384
0.0004261684710702886
0.0007910331231808668
0.0009181224879005156
0.0008979319184314303
0.000797701816055097
0.0006640273424703794
0.000526451138351028
0.00040147877241258624
0.00029645767164075345
0.0002128784153910006
0.0001487848877576417
9.988526362331538e-05
5.7983891318641144e-05
2.493633784489996e-06
-7.495861733575752e-08
-1.2903498679446283e-05
-5.8241874963463404e-05
-0.00017684955835391806
-0.0004381367030694966
-0.0009489962018398026
-0.00186115117993023
-0.003375434469555742
-0.005741734020565734
-0.009253876244765636
-0.01423940785372884
-0.021044940523043905
-0.030018313488864964
-0.041489213171371365
-0.055750021651883745
-0.07303855342935
-0.09352402932141211
-0.1172971993539664
-0.14436504190300267
-0.1746500053976557
-0.20799337505319493
-0.2441620717777216
-0.2828580333957471
-0.3237292818003475
-0.36638182374051464
-0.41039164177951726
-0.455316178716639
-0.5007048794772984
-0.5461085102244746
-0.5910871121915062
-0.635216560112414
-0.6780937795365739
-0.7193407347321735
-0.7586073325948111
-0.7955734024748278
-0.8299499119400608
-0.8614795687416337
-0.8899369435497547
-0.9151282294732437
-0.9368907352530327
-0.9550921908711589
-0.969629928077893
-0.9804299844780674
-0.9874461684674222
-0.9906591133839497
-0.9900753425152974
-0.9857263617785204
-0.9776677936114857
-0.9659785634923554
-0.9507601490929627
-0.9321359008653779
-0.9102504412662346
-0.8852691471543692
-0.8573777153813728
-0.826781804411022
-0.7937067341612467
-0.7583972115270018
-0.7211170299148074
-0.6821486678570166
-0.6417926854311643
-0.6003667898630023
-0.5582044165825212
-0.515652653545889
-0.4730693302365351
-0.4308191044063174
-0.38926841527390865
-0.34877923667929284
-0.3097016608329203
-0.2723654727753855
-0.23707103237213423
-0.20407995214312144
-0.17360622346809834
-0.14580856842533765
-0.12078483985680122
-0.09856921886941451
-0.07913274173704496
-0.06238733227298092
-0.04819306865744286
-0.03636796434664125
-0.02669920230886666
-0.018954628556251085
-0.012893429821472135
-0.00827525711301911
-0.004867502207230845
-0.0024508405729825027
-0.0008233948546024805
0.0001961061225320529
0.000765957023924537
0.001019906382307876
0.0010665678810599566
0.0009900153803008385
0.0008516329895343241
0.0006930695658609631
0.0005399323697856484
0.0004057280568414021
0.000295541829036052
0.00020895991892855815
0.0001415082205981902
8.251246580339363e-05
3.5335118211461675e-06
-1.583476462399075e-07
-2.418358151159234e-05
-0.00010447581300929962
-0.0003057008300671992
-0.0007331007273783512
-0.0015420673027326762
-0.002944502661938721
-0.005210163493171574
-0.00866190750490218
-0.013664632753056594
-0.020608620882628777
-0.02988878472647087
-0.04188184505393653
-0.05692365430130938
-0.07528875167642558
-0.09717383667944483
-0.12268628420501503
-0.15183820115889746
-0.18454593772037223
-0.22063448653820864
-0.25984586980463303
-0.3018504371430044
-0.34625996273918536
-0.39264150894508865
-0.44053117952276893
-0.4894470826777788
-0.5389010309171759
-0.5884086980583374
-0.6374981182724481
-0.6857165404283507
-0.7326357419576227
-0.7778559631014861
-0.8210086504143365
-0.8617582045502232
-0.8998029183624976
-0.9348752731442238
-0.9667417382169565
-0.995202195564165
-1.0200890891407595
-1.0412663792011454
-1.0586283660233153
-1.0720984347617815
-1.0816277634863316
-1.0871940292243936
-1.0888001414327826
-1.0864730282169401
-1.0802624973032473
-1.0702401908573487
-1.056498650420577
-1.0391505052672012
-1.0183277941573081
-0.994181426553401
-0.9668807846072387
-0.9366134612385055
-0.9035851219367845
-0.8680194679403765
-0.8301582655538985
-0.7902613900138565
-0.7486068122177615
-0.7054904330414391
-0.6612256439445254
-0.6161424662757156
-0.5705860986205129
-0.5249146865187799
-0.4794961278912359
-0.43470374715569465
-0.3909107176963658
-0.34848319118570936
-0.3077722056954513
-0.26910459072152537
-0.23277325815437383
-0.1990274476831901
-0.16806365742992949
-0.1400181009554601
-0.11496155020765239
-0.09289731426226332
-0.07376284679232249
-0.057435083882741815
-0.043739142176791576
-0.03245954761103646
-0.02335282727009175
-0.0161601747412751
-0.010619032737925263
-0.006472789167626703
-0.0034782466089014964
-0.0014109577712436668
-6.879761311647594e-05
0.0007257895518861135
0.0011245418702304651
0.0012529993683571066
0.0012110213325385907
0.0010742795787226393
0.0008967241316681328
0.0007138550582535347
0.0005464652712405932
0.00040439333886243536
0.00028969111458740127
0.00019814525661516444
0.00011613832529622997
4.95185174994648e-06
-3.17495680695379e-07
-4.36217140835763e-05
-0.0001808829148288704
-0.0005110557338906291
-0.0011881583906669677
-0.0024302488621686462
-0.004522912091434379
-0.007815502357410816
-0.012709634047684873
-0.01964061196188955
-0.029053550942331308
-0.04137666042438855
-0.05699446129047751
-0.07622355883500721
-0.09929309758382368
-0.12633130207578622
-0.15735870775675972
-0.19228793723907883
-0.23092927329227125
-0.27300087185286515
-0.3181422560633003
-0.36592971406217195
-0.41589234729901237
-0.467527732841153
-0.5203164243095807
-0.5737347814774278
-0.6272658590344063
-0.6804082830030184
-0.7326831914734522
-0.7836394152822459
-0.8328571298155318
-0.8799502298819063
-0.9245676750060708
-0.9663940314158271
-1.0051494069267335
-1.0405889416338137
-1.0725019848166761
-1.1007110592262628
-1.125070689184422
-1.1454661490255351
-1.161812173086677
-1.174051657122446
-1.1821543729608845
-1.1861157127058863
-1.1859554751856778
-1.1817167051202087
-1.17346459422632
-1.16128545289622
-1.1452857609407423
-1.1255913059835403
-1.10234641821077
-1.0757133100484864
-1.0458715285812255
-1.0130175266309667
-0.9773643547272663
-0.9391414699219153
-0.8985946476554876
-0.855985968814527
-0.8115938350728171
-0.7657129413817398
-0.7186541056111455
-0.6707438234773295
-0.6223233850454565
-0.573747361830232
-0.5253812569129984
-0.47759811174871125
-0.4307738900453094
-0.38528151812758
-0.34148355725609125
-0.2997236173446208
-0.260316788674832
-0.22353955642229698
-0.1896198511458056
-0.1587280467222517
-0.13096980803545388
-0.10638167457831756
-0.08493011129789492
-0.06651445366629616
-0.05097374293055593
-0.03809695269069941
-0.027635646032961397
-0.019317781829884625
-0.012861296049590385
-0.007986249844125038
-0.0044247173826849435
-0.0019280735248698227
-0.00027179531541380274
0.0007418063625001156
0.0012824117768938524
0.0014916430708258165
0.0014838834892068632
0.001347867671529444
0.0011490154825136067
0.0009324418461353119
0.0007264543223446519
0.0005461830295759296
0.0003967160885780846
0.0002743436134844581
0.00016176564611724493
6.865872123756993e-06
-6.073616520151247e-07
-7.590914164475732e-05
-0.0003028700010124221
-0.000827742199358239
-0.0018683229982752504
-0.0037202389577604216
-0.006755088548356015
-0.011409137351534628
-0.018163115363671066
-0.027515087216409204
-0.03994938099914796
-0.055905012841240574
-0.07574691526169676
-0.09974266830343198
-0.12804651773517037
-0.16069144067376484
-0.19758906145278932
-0.23853645603464954
-0.2832283784690041
-0.33127320839542107
-0.3822109218838245
-0.43553157057140185
-0.4906930482626791
-0.547137265776987
-0.6043041918097941
-0.6616435137552273
-0.7186239076240369
-0.7747400738193942
-0.8295177991057782
-0.8825173544119549
-0.933335545869797
-0.9816067157882327
-1.0270029528298963
-1.0692337259633835
-1.1080451117074916
-1.143218743231131
-1.1745705754330045
-1.2019495330342176
-1.2252360887240041
-1.2443408045944595
-1.2592028612597599
-1.2697885938856985
-1.2760900516591451
-1.278123595995346
-1.2759285522338681
-1.2695659291640329
-1.2591172201120095
-1.244683298356048
-1.2263834182884985
-1.2043543320733816
-1.1787495296479178
-1.1497386078513576
-1.1175067722155876
-1.0822544723548044
-1.0441971685843003
-1.0035652227882448
-0.9606038998192356
-0.9155734558489259
-0.8687492760542744
-0.8204220049484516
-0.7708975881717943
-0.7204971151506836
-0.6695563195151454
-0.6184245619999151
-0.5674630940408771
-0.5170423864444771
-0.46753831457166567
-0.4193270278523328
-0.37277840428239956
-0.32824810394227366
-0.28606838855980216
-0.2465380588031847
-0.20991206086715217
-0.1763915032494707
-0.14611496915114572
-0.11915207029297305
-0.09550012648689285
-0.0750846466379521
-0.05776393031063292
-0.04333763912061287
-0.0315586766236624