# vtk DataFile Version 4.1 
COMMENT
ASCII
DATASET STRUCTURED_POINTS 
DIMENSIONS 100 100 1 
ORIGIN 0 0 0
SPACING 0.12693303650867893 0.12693303650867893 0 
POINT_DATA 10000
SCALARS U double 1
LOOKUP_TABLE default
0.0
0.0
0.0
0.0
0.0
0.0
0.0
0.0
0.0
0.0
0.0
0.0
0.0
0.0
0.0
0.0
0.0
0.0
0.0
0.0
0.0
0.0
0.0
0.0
0.0
0.0
0.0
0.0
0.0
0.0
0.0
0.0
0.0
0.0
0.0
0.0
0.0
0.0
0.0
0.0
0.0
0.0
0.0
0.0
0.0
0.0
0.0
0.0
0.0
0.0
0.0
0.0
0.0
0.0
0.0
0.0
0.0
0.0
0.0
0.0
0.0
0.0
0.0
0.0
0.0
0.0
0.0
0.0
0.0
0.0
0.0
0.0
0.0
0.0
0.0
0.0
0.0
0.0
0.0
0.0
0.0
0.0
0.0
0.0
0.0
0.0
0.0
0.0
0.0
0.0
0.0
0.0
0.0
0.0
0.0
0.0
0.0
0.0
0.0
0.0
2.3031195005136615e-12
-1.1296463899147207e-09
-1.250623800874701e-08
-7.091652551720025e-08
-2.886732823928156e-07
-9.513869957009187e-07
-2.6944632452200775e-06
-6.790627100885402e-06
-1.5578427678384256e-05
-3.305134982046317e-05
-6.560812050279002e-05
-0.0001229381830467838
-0.00021898523004568803
-0.00037290081733875436
-0.0006098748680322656
-0.0009617154752630812
-0.0014670506683445016
-0.002171041463519118
-0.00312452784887017
-0.004382574245944947
-0.0060024334810793575
-0.008041002370716865
-0.010551891540996252
-0.01358227168006919
-0.01716968410942649
-0.0213390132296187
-0.026099811831969646
-0.031444148988782276
-0.03734511710508391
-0.04375609344977772
-0.0506108061248995
-0.05782420887394473
-0.06529412675005948
-0.07290359807280655
-0.08052380902674885
-0.08801749654200079
-0.0952426827985794
-0.10205660022115456
-0.10831966812260062
-0.11389938987772645
-0.11867405121754071
-0.12253611451909908
-0.1253952195628922
-0.12718071710120477
-0.1278436769635913
-0.12735832685323661
-0.125722891291907
-0.12295981246285621
-0.119115346335821
-0.1142585389786228
-0.10847960001288558
-0.10188770339288689
-0.09460826054996953
-0.0867797275774689
-0.07855002611966388
-0.07007267585914721
-0.06150275310161695
-0.05299280245415457
-0.044688834310192556
-0.03672653765623824
-0.02922782494850767
-0.022297805204392267
-0.016022257572448455
-0.010465657353267988
-0.005669797101673956
-0.001653051871469348
0.0015896413107035566
0.004085993656758098
0.00588465517970619
0.007052497240686382
0.0076708709546587026
0.00783095188606234
0.007628444403921257
0.007158079522253275
0.006508447645627438
0.005757717571723931
0.00497068490080125
0.004197382560535569
0.003473224321782348
0.0028204086708845046
0.002250148869198809
0.0017652499753312717
0.0013626195086326003
0.0010354356899559606
0.0007748512850995375
0.0005712351631472296
0.0004150241283929576
0.0002972765863863676
0.00021000635538745785
0.00014635205790051214
0.00010062034675506892
6.823410823941194e-05
4.561605809426499e-05
3.003777709263945e-05
1.9460373983583078e-05
1.238520480889503e-05
7.722306344524912e-06
4.665954736262854e-06
2.507962144768866e-06
1.094146992109761e-07
4.7480136371516396e-12
-3.952497027389006e-09
-3.540694154183241e-08
-1.7728196401265156e-07
-6.581941247844765e-07
-2.0120532206205074e-06
-5.340293796522461e-06
-1.2701175116585006e-05
-2.7637126860063673e-05
-5.582917344905792e-05
-0.00010583944927234092
-0.00018987319317958362
-0.00032446609764203625
-0.0005309872198007122
-0.0008358462909910514
-0.0012703093158421865
-0.0018698571010881825
-0.002673064295250458
-0.003720026032963182
-0.00505040866534015
-0.00670124372827912
-0.008704614836885572
-0.011085402122049295
-0.013859246974454034
-0.0170308823120473
-0.02059294327196738
-0.024525334311923178
-0.028795185880141832
-0.03335739162863741
-0.038155679480151646
-0.04312413957135416
-0.04818911086592363
-0.05327131659118491
-0.05828813613551996
-0.06315590642871266
-0.06779215740746336
-0.07211770201719023
-0.07605851939865471
-0.07954738871097526
-0.08252524899672203
-0.0849422764884817
-0.08675868402866281
-0.08794525738879203
-0.08848365007225477
-0.0883664617301746
-0.08759712585242864
-0.08618963028948581
-0.08416808990852528
-0.08156618490262463
-0.07842647171124985
-0.0747995671061638
-0.07074320088199228
-0.06632113008528588
-0.06160190923566166
-0.05665751783222856
-0.05156185939685022
-0.04638916515803924
-0.04121235837837295
-0.036101458326747236
-0.031122119892547803
-0.026334408305182577
-0.021791891194379034
-0.017541088311036537
-0.013621255071097689
-0.010064401095276558
-0.006895379613649927
-0.0041318539025097705
-0.0017839761717583433
0.00014628735359613356
0.0016660967103861513
0.002792683249094942
0.003553907543967373
0.003988007217027262
0.004142217469574842
0.0040701821151595185
0.0038283791167458307
0.003472067823366284
0.0030514277537376316
0.0026085390426078734
0.002175653931257908
0.0017748935718657993
0.0014191806746210957
0.001113988088866039
0.0008594046646782584
0.0006520893153556322
0.00048684711046807327
0.0003577416906675018
0.0002587940500748102
0.00018438135011146245
0.00012944932796015482
8.961732655377772e-05
6.121648333398368e-05
4.127726575573088e-05
2.7475135960120858e-05
1.8045634342221828e-05
1.1683538283887956e-05
7.438375739594654e-06
4.602826039785924e-06
2.529823926622343e-06
1.1262068293251542e-07
5.049082295965848e-12
-1.2955755233289052e-08
-1.0221099529758685e-07
-4.732630384373921e-07
-1.6596457994265988e-06
-4.84987463845593e-06
-1.2402118424929437e-05
-2.8580177409831157e-05
-6.051774896789294e-05
-0.00011937957041354826
-0.0002216429682938956
-0.00039037921189262703
-0.0006563793802932357
-0.0010589517994431157
-0.001646222501475872
-0.00247479796990048
-0.0036086981204043016
-0.005117531123258015
-0.007073952188796376
-0.009550516962750928
-0.012616098575361988
-0.016332079391208072
-0.02074855042520034
-0.02590075230793435
-0.03180597320714967
-0.03846108479503855
-0.04584085194878279
-0.0538971005743352
-0.06255877570633023
-0.07173287307969368
-0.08130618487303552
-0.09114776632315207
-0.10111200533307389
-0.11104216202419188
-0.12077423866707714
-0.13014104132388538
-0.138976301337356
-0.14711873591871588
-0.15441594099795813
-0.1607280248505219
-0.16593090667400556
-0.16991921937363857
-0.17260876968578287
-0.1739385210076019
-0.17387207468346463
-0.172398633958156
-0.16953344140249307
-0.16531768550681153
-0.1598178755649786
-0.15312468626776488
-0.1453512750392804
-0.1366310767126729
-0.1271150825521075
-0.11696861516802205
-0.10636761928544339
-0.0954945027968608
-0.08453358545382271
-0.07366624594620855
-0.06306590263767617
-0.05289301679383695
-0.04329036352726498
-0.034378863625768245
-0.02625429312890954
-0.018985169344502763
-0.01261203771227986
-0.007148249655531078
-0.0025821403981718927
0.0011196793999705336
0.0040083647493461315
0.006148730645628754
0.007615471532670168
0.00849000574916434
0.008857992560858202
0.008807317894910857
0.008426186680351994
0.007800962003258424
0.007013563393897408
0.006138518238657593
0.00524004066799786
0.004369674148813827
0.0035650048610851907
0.0028497378332940845
0.0022351074884834187
0.0017222885312758239
0.0013052878221161029
0.000973781713002027
0.0007154945076473337
0.0005179199393018386
0.00036938495859459986
0.0002595847266865447
0.00017976263736449582
0.0001226888739930779
8.254115154199363e-05
5.4743226240998044e-05
3.5786090713232735e-05
2.3043270743865505e-05
1.4584607473335094e-05
8.970339206765153e-06
4.900329504811644e-06
2.152220848412239e-07
-1.591321056844313e-11
-3.843428321695402e-08
-2.7212830397557547e-07
-1.1703646214510852e-06
-3.874504766065637e-06
-1.079007431811047e-05
-2.6459840449369535e-05
-5.8731773821604203e-05
-0.00012018316376460391
-0.00022969927219166982
-0.0004140431393546592
-0.000709205448810927
-0.0011613012670036278
-0.001826791419963837
-0.002771851815956138
-0.0040707894762874435
-0.005803499424983815
-0.008052058660579084
-0.0108966481565294
-0.014411068815582705
-0.018658163654310687
-0.023685471891150698
-0.02952142143888411
-0.03617231903236458
-0.043620329257989046
-0.0518225540264042
-0.06071124163080792
-0.07019507755342536
-0.08016144392912608
-0.09047948516378397
-0.10100378551496468
-0.1115784503503948
-0.12204138459667484
-0.13222857678485697
-0.14197822171922517
-0.15113454563404927
-0.15955123146708777
-0.16709437572808158
-0.17364494012186585
-0.1791006889744037
-0.18337762658334197
-0.1864109663781368
-0.18815567616309498
-0.1885866509870429
-0.18769856781412964
-0.18550547477327536
-0.18204016301380183
-0.1773533617773214
-0.171512787870236
-0.1646020698970225
-0.15671955594122458
-0.1479770013536684
-0.13849812139991907
-0.12841698226417517
-0.1178761940419609
-0.10702486204078987
-0.09601624979725547
-0.08500511146601702
-0.07414466628473457
-0.06358321770330087
-0.05346046768821425
-0.04390364302953229
-0.035023630203475986
-0.026911396038999273
-0.01963503284219969
-0.013237783523114272
-0.0077373513140112345
-0.0031266684405021547
0.0006239008472703626
0.003563177441802515
0.00575506002811041
0.007274253788421538
0.008202358661168929
0.008624658103717675
0.008627673364744968
0.008297274919803671
0.007716977612695172
0.006966059339236482
0.006117334048075023
0.0052347004689319385
0.0043708530896493505
0.0035656636345592707
0.002845662766224717
0.0022248026245913037
0.0017063618122701817
0.0012855889364340677
0.0009525593903719573
0.0006947654161757535
0.0004991269162810165
0.00035331859811098775
0.00024648106086807333
0.0001694771523320802
0.00011486974465988947
7.676077939076244e-05
5.057865480614303e-05
3.28558440199358e-05
2.1005822952277236e-05
1.3064452958835325e-05
7.205621773047413e-06
3.1667317115640194e-07
-1.2732977624388178e-10
-1.0528961669795299e-07
-6.812856516383791e-07
-2.7473355265535753e-06
-8.640965665701235e-06
-2.30493118181797e-05
-5.4442692258628654e-05
-0.00011688125331348113
-0.00023208150577824614
-0.0004315435448203658
-0.0007584698990744035
-0.0012691699258905842
-0.0020336505310791925
-0.0031351476117263887
-0.004668447050338537
-0.006736965966889422
-0.009448696396990508
-0.012911235822980885
-0.017226225728664203
-0.022483579265985543
-0.028755897181093337
-0.036093448588525597
-0.04452003645460651
-0.054029986681727336
-0.06458640591792354
-0.0761207577980131
-0.08853371970197808
-0.10169720918197896
-0.11545741497444031
-0.12963863325864408
-0.14404769456220648
-0.15847876783283252
-0.1727183421306846
-0.18655020924692528
-0.1997602985752124
-0.21214124549776425
-0.2234966038162107
-0.23364463951472275
-0.2424216662409696
-0.2496849017785454
-0.2553148393785579
-0.2592171383638199
-0.2613240453670749
-0.261595361467836
-0.26001897193035695
-0.25661095477756196
-0.2514152825797864
-0.2445031290684714
-0.2359717889518538
-0.22594321605676884
-0.214562182109845
-0.20199405659132894
-0.18842220764888828
-0.17404502552749254
-0.15907257375796527
-0.14372287973186185
-0.12821788544175822
-0.11277909125266324
-0.09762294100136969
-0.08295601645341644
-0.06897013487791764
-0.05583747742148367
-0.04370591973545526
-0.032694789079672486
-0.02289132788522823
-0.01434818911417019
-0.007082302785191972
-0.0010754110441499084
0.0037235489145423027
0.007394232755816459
0.010039121441669538
0.011776731186142404
0.012734524280965108
0.01304229491310982
0.012826677142604225
0.012207136328822364
0.01129344071855356
0.0101842853319767
0.008966567643875831
0.007714850149398361
0.00649076090094642
0.005342376387439941
0.004303868274340444
0.003395773313968213
0.00262613709444423
0.001992544550275756
0.0014847926606762118
0.0010877904928130854
0.0007842459121050273
0.0005568065532877965
0.00038950351181329365
0.00026852359546830005
0.00018245433707431575
0.00012218740989013442
8.064578102708629e-05
5.24475844046786e-05
3.3556761018757264e-05
2.088020113596023e-05
1.1511179016270581e-05
5.036534576288098e-07
-5.370973764427034e-10
-2.6904106362358245e-07
-1.6104515554236304e-06
-6.127714815774905e-06
-1.8381313764706693e-05
-4.708319415736797e-05
-0.00010730469013048935
-0.00022307272325358646
-0.00043010833256672823
-0.0007783592853311048
-0.001333919231731819
-0.0021799269932180846
-0.003416106773631332
-0.005156736024109451
-0.007526993909297958
-0.01065782441656772
-0.014679617100962206
-0.01971514169264301
-0.025872253962947445
-0.033236912140384926
-0.04186700770345178
-0.051787431006494425
-0.06298667535253397
-0.0754151493515528
-0.08898523270241843
-0.1035729883788576
-0.11902134430081487
-0.13514448547939678
-0.1517331549538559
-0.16856054697137218
-0.18538848485992285
-0.2019736036319317
-0.21807329777957243
-0.2334512424468545
-0.24788234634648867
-0.26115704354698954
-0.2730848757511061
-0.28349735508794216
-0.29225012878966017
-0.29922449116031324
-0.3043283052224797
-0.3074964069372023
-0.30869056971038794
-0.30789910686757294
-0.30513618572274603
-0.3004409195358845
-0.2938762936970207
-0.28552797043844347
-0.2755030027246344
-0.2639284731236196
-0.2509500578618215
-0.23673050043438085
-0.22144796377718154
-0.20529421603136955
-0.1884725935416893
-0.17119567737669203
-0.15368261796544316
-0.13615604806869863
-0.11883853876887168
-0.10194857773651787
-0.08569608465887817
-0.07027752602326001
-0.055870750624616355
-0.042629737456406976
-0.03067952613274259
-0.020111679644841583
-0.010980696762255195
-0.0033018261374857007
0.0029492897265745673
0.007834819583594861
0.011450679018784323
0.013920363042053373
0.015387164717130569
0.016005553871795624
0.01593265185505018
0.01532071109679578
0.014311277176178194
0.013031329981313402
0.011591281597469421
0.010084384123722182
0.008586970086296213
0.007159034610503999
0.0058449078997508995
0.004674036759619849
0.0036620714207154233
0.0028124696348424327
0.002118696113581374
0.001566891279314412
0.0011387108572182292
0.0008139712810340115
0.0005727922564611554
0.00039706944713806085
0.0002712722703795718
0.00018268613984677115
0.00012127603483522681
7.934045556720112e-05
5.106472913033592e-05
3.194822383976548e-05
1.7673556537156114e-05
7.71086486120204e-07
-1.7933683978107212e-09
-6.462215259964496e-07
-3.6118022355982704e-06
-1.303558862209742e-05
-3.742528684068452e-05
-9.229452052642777e-05
-0.00020337188285219642
-0.0004100946755872732
-0.0007689523590248431
-0.001356152106318696
-0.002269067035106292
-0.0036260068005627144
-0.0055640115459308255
-0.008234588578626996
-0.011797551134104944
-0.016413342314152358
-0.022234401898039515
-0.029396236951149315
-0.03800887996420591
-0.04814936461868951
-0.059855733613491356
-0.0731229362609291
-0.08790079898720422
-0.1040940811582927
-0.12156447924243073
-0.1401343259058962
-0.1595916528485081
-0.17969624721247102
-0.2001863272228869
-0.22078548658449468
-0.24120960102443637
-0.26117344613234905
-0.2803968360436502
-0.29861015166521254
-0.3155591808008565
-0.33100923804457466
-0.3447485684300619
-0.3565910654378023
-0.3663783517536688
-0.37398128133570285
-0.37930092531086723
-0.38226910346321596
-0.38284851895868155
-0.38103254765943745
-0.3768447258602899
-0.37033797223902537
-0.36159357173636486
-0.35071994126066536
-0.33785118968563616
-0.323145477604668
-0.30678317569012636
-0.2889648142388407
-0.2699088105761586
-0.24984895556896689
-0.22903163588245137
-0.20771276538283026
-0.18615439811660783
-0.16462099776445074
-0.14337534579099673
-0.1226740842216007
-0.10276291055835765
-0.08387147308280536
-0.06620805562291107
-0.049954192202370594
-0.035259413305880574
-0.022236394364507594
-0.010956847574311106
-0.0014485588778826823
0.006305995509282025
0.012369038681290195
0.01684457246511833
0.019873023222255266
0.02162361337498206
0.022284954310028665
0.02205467672052398
0.021129130302856423
0.019694216216207087
0.01791822585661618
0.01594717888749017
0.013902680760888849
0.011881892098266804
0.009958943356902207
0.008187098911707453
0.006601147389603035
0.005219768253759975
0.004047870771875829
0.003079024930661796
0.0022980792313566675
0.0016839341285873196
0.0012122977300651908
0.0008581702627685033
0.0005978209835465975
0.0004101200216150246
0.0002772192148928159
0.00018468705257912942
0.00012125703604308843
7.832440035176452e-05
4.916399765604588e-05
2.7240720050875716e-05
1.1841686252308538e-06
-5.2042856014158535e-09
-1.4677088050831448e-06
-7.714656923016879e-06
-2.652417656229039e-05
-7.309802935259297e-05
-0.0001739317459009443
-0.00037118294745560286
-0.0007270025622254159
-0.001327152078900615
-0.0022831920988274843
-0.003732614253008114
-0.005836491221387612
-0.008774505035895545
-0.012737533303611203
-0.01791827344441549
-0.02450062028773849
-0.032648651132596435
-0.04249610216997158
-0.05413714689731596
-0.06761913127649614
-0.08293771116415519
-0.10003460691156206
-0.11879796728930936
-0.1390651429972303
-0.16062752372513792
-0.1832369984177936
-0.20661355518498753
-0.23045353889574471
-0.2544381213250588
-0.2782415998947151
-0.30153921596986444
-0.3240142631371825
-0.3453643326965373
-0.36530661272792625
-0.38358221558472905
-0.39995955527765376
-0.41423683102901254
-0.42624369726075084
-0.43584221490745445
-0.44292718589577135
-0.44742597356287045
-0.4492979081933151
-0.4485333699886335
-0.4451526326305707
-0.4392045398796232
-0.4307650758564782
-0.4199358770881208
-0.40684272122594123
-0.3916340136356327
-0.3744792788597359
-0.3555676493283904
-0.3351063287907488
-0.313318993055289
-0.29044407627223784
-0.26673287795239686
-0.2424474153063061
-0.21785793876461998
-0.19324002748079722
-0.16887118821251335
-0.14502689724579662
-0.12197605273175126
-0.0999758451341094
-0.07926610671796028
-0.060063266275932184
-0.042554110404595016
-0.026889633935928622
-0.013179344015885228
-0.001486456450322684
0.00817552308511867
0.01584432398740503
0.02160807588012009
0.025601772758970843
0.02800091562605331
0.029012524724265312
0.028864080039592795
0.027791304580541284
0.026025959424421048
0.02378488653187817
0.021261366032565027
0.01861946555190833
0.01599153878459007
0.013478516605861674
0.011152265640921151
0.009059153838644238
0.007224062418152585
0.00565433857280313
0.004343470317677027
0.003274473060917479
0.0024230530980256515
0.0017605724639938318
0.0012567471684428412
0.0008819396585707939
0.0006089010844507465
0.0004138809067561697
0.0002771170045541968
0.0001827998403344623
0.00011861160053823773
7.47519096991463e-05
4.150405667960439e-05
1.7977074417807737e-06
-1.3645625619056063e-08
-3.1671528176204705e-06
-1.5746167703100526e-05
-5.17584549265898e-05
-0.0001372707041830323
-0.0003157565701780262
-0.000653622225406369
-0.0012450512618266156
-0.0022152340439416155
-0.003721132029166262
-0.005949175603885436
-0.009109662149448522
-0.013428042786803904
-0.0191336874831937
-0.02644703370397959
-0.035566209288987016
-0.046654258238758795
-0.0598279972731132
-0.07514932052414741
-0.09261949074579194
-0.11217665228633307
-0.13369651367201582
-0.15699590633761334
-0.18183874925906185
-0.20794384362898594
-0.2349938839656017
-0.26264509177449435
-0.29053694073098596
-0.31830153278792594
-0.34557228811242036
-0.37199171620626037
-0.39721813196865985
-0.4209312630240469
-0.4428367604592387
-0.46266967362208733
-0.48019698194021165
-0.49521929499275275
-0.5075718389979342
-0.5171248462554827
-0.523783456511778
-0.5274872279455526
-0.5282093423142786
-0.5259555751172564
-0.5207630883638582
-0.5126990912636155
-0.5018594031581071
-0.48836694333383157
-0.47237016384865893
-0.454041433894862
-0.4335753771392958
-0.4111871565052406
-0.3871106935676966
-0.3615968017612503
-0.3349112037248024
-0.3073323933523709
-0.2791492928701316
-0.2506586453911461
-0.22216207537471178
-0.19396274533198402
-0.1663615396352349
-0.13965271842122234
-0.1141190093169152
-0.09002614448114009
-0.06761690648824317
-0.04710481834374463
-0.028667697638622675
-0.012441387179342485
0.0014859337876741954
0.013078373756068518
0.02235535157456545
0.029392473317853766
0.0343197792752823
0.03731702441578887
0.038605901965136975
0.0384394568617256
0.037089327095026665
0.03483182786797185
0.03193416573093816
0.028642148770160338
0.025170590676929085
0.021697200639693708
0.01836019035827158
0.01525925141396891
0.01245910810215349
0.009994636887998648
0.007876586972193012
0.006097174521184161
0.004635139374340933
0.003460128940472341
0.0025364359043702723
0.001826155914681242
0.0012917932519003598
0.0008982904478806866
0.0006144399088387075
0.00041366373958239087
0.00027419515687247077
0.0001786884329037811
0.00011302548716928267
6.285723259970589e-05
2.7120693490698048e-06
-3.300742146670937e-08
-6.519230279639659e-06
-3.080130590328321e-05
-9.709191183277784e-05
-0.0002483548627768039
-0.0005532115718513179
-0.0011123263573782748
-0.002063045202247105
-0.003581144136899864
-0.005878835346675717
-0.009198646128700505
-0.01380333855331018
-0.019962573273647546
-0.02793744719421165
-0.037964288358466936
-0.050239146937877545
-0.06490429016551323
-0.0820377319014983
-0.10164646129153473
-0.12366364046933122
-0.147949672270103
-0.17429673528938555
-0.2024361682336222
-0.23204796491255306
-0.26277160865418137
-0.294217514589589
-0.32597843979690494
-0.3576403436462262
-0.388792314925307
-0.4190353133718455
-0.447989590537438
-0.47530075230475666
-0.5006445004714515
-0.5237301440492489
-0.5443030046458915
-0.5621458578714443
-0.5770795578462974
-0.5889629881346706
-0.5976924728700034
-0.6032007689520683
-0.6054557458157844
-0.6044588446454827
-0.6002433947871191
-0.5928728518606785
-0.5824390097839177
-0.5690602274912397
-0.5528797003640136
-0.5340637960249598
-0.512800463919593
-0.48929771775574127
-0.4637821791741083
-0.43649765980788474
-0.4077037470660834
-0.3776743465718289
-0.34669612141091144
-0.31506675566541215
-0.2830929579489208
-0.25108811111383383
-0.2193694688040713
-0.18825480048611548
-0.15805839690137385
-0.12908637067728967
-0.10163122504778156
-0.07596571937470684
-0.052336133972700066
-0.03095512685960921
-0.011994476843823296
0.004421887021584788
0.018224071241486343
0.02940104374328998
0.038003486478071107
0.04414408138345211
0.0479947341472636
0.04978043196827095
0.04976972258114522
0.048262177761018675
0.04557362312467583
0.04202030568723165
0.0379034402797968
0.033495638293353634
0.02903052511499585
0.024696406851783564
0.02063423623072487
0.016939491295774444
0.013667071293966737
0.010838045609840554
0.008447099032274705
0.006469748496784462
0.0048687511027512955
0.003599457523389272
0.0026141014207853586
0.0018651269542498178
0.0013076702874367098
0.0009012808007793776
0.0006109390406156453
0.0004074095018757089
0.0002668900191954342
0.00016950929675619308
9.44285309243125e-05
4.057862346035835e-06
-7.461985687237262e-08
-1.284399994966927e-05
-5.789432971370481e-05
-0.00017546843970383386
-0.00043373821546833504
-0.0009370371476074973
-0.0018323677617115876
-0.0033126191658653186
-0.005615293364784388
-0.009016119740406768
-0.013817655424101832
-0.020333683153961602
-0.028870796972801763
-0.03970891811435494
-0.05308256998199716
-0.06916457625614701
-0.08805348498896703
-0.10976554258596453
-0.1342315282389291
-0.1612982846664221
-0.19073439778005175
-0.22223921503089547
-0.2554542559529979
-0.2899760471107199
-0.3253694839201051
-0.3611809549824413
-0.39695063196923003
-0.4322235047995834
-0.4665589087392494
-0.4995384344602702
-0.5307722273808735
-0.5599037670358556
-0.58661327265822
-0.6106199116510019
-0.6316829983146676
-0.6496023663525815
-0.6642180851503742
-0.6754096706846687
-0.6830949203274667
-0.6872284790494705
-0.6878002240785995
-0.6848335367913163
-0.6783835148745101
-0.6685351646259812
-0.6554016024709092
-0.6391222860345629
-0.6198612880258669
-0.5978056203093188
-0.5731636104052775
-0.5461633277732811
-0.5170510520961817
-0.48608976988512503
-0.4535576785767764
-0.4197466684725611
-0.3849607421003748
-0.3495143178483825
-0.3137303504203567
-0.2779381857555072
-0.2424710542360369
-0.20766309580860015
-0.1738458074606054
-0.1413438114022504
-0.11046986569943461
-0.08151908202197435
-0.05476238041163282
-0.030439299045599336
-0.008750385094151493
0.01015048586755473
0.026163390976248938
0.03924866047790572
0.04943153750162777
0.05680451098561997
0.061526682529328476
0.06381966673407712
0.06395976657271642
0.06226650822164117
0.05908803995663919
0.05478434633894813
0.04970962467805582
0.04419542333876116
0.03853616685606869
0.0329784453469763
0.02771494360747977
0.022883218739381584
0.018568848217979855
0.01481191916491038
0.011615531673835323
0.008954984237361081
0.0067865505605356966
0.005055134456133226
0.003700476512204471
0.0026618858259962316
0.0018816414627647524
0.0013072646111554206
0.000892844511304636
0.0005995347976172071
0.0003951579991241961
0.00025219357966730185
0.00014078396979551178
6.024342850559591e-06
-1.5907655459534075e-07
-2.4292496594492145e-05
-0.00010481037676142536
-0.0003061326999671318
-0.0007325361161036893
-0.001536988139567393
-0.0029264639046507183
-0.005161981199272922
-0.008552372868091717
-0.013441738296315883
-0.02019146418277633
-0.029158493948685433
-0.040672020899596734
-0.05501092239016479
-0.07238405532808805
-0.0929150709477283
-0.11663278609284977
-0.14346748342794638
-0.17325290323768228
-0.20573320524950262
-0.24057385701435105
-0.2773752512508552
-0.3156878494271094
-0.35502775891902316
-0.39489183650339926
-0.43477163313246675
-0.474165721473804
-0.5125901548125208
-0.5495869789321092
-0.5847308509839456
-0.6176339109618795
-0.6479491063978507
-0.6753721958968024
-0.6996426596051057
-0.7205437318559239
-0.7379017492832625
-0.7515849815599464
-0.7615020851367941
-0.767600295231231
-0.7698634490878807
-0.7683099146832215
-0.7629904835059936
-0.7539862734238885
-0.7414066773956027
-0.7253873853161033
-0.7060884990388702
-0.683692754124396
-0.6584038557296196
-0.6304449299665423
-0.6000570857659288
-0.567498075559086
-0.5330410357170683
-0.49697327943069614
-0.4595951053370295
-0.42121857448368244
-0.38216619605438623
-0.34276944875561144
-0.3033670503641275
-0.2643028737181297
-0.2259233952422715
-0.1885745547108111
-0.15259790612685503
-0.11832595388201939
-0.08607660064635757
-0.05614668814329565
-0.028804691930083514
-0.0042827364983096345
0.017231776721296534
0.03560449768652293
0.05076184598538314
0.062697438574407
0.07147647667064032
0.0772373391206868
0.08018971650910728
0.08060881246223207
0.0788254412718305
0.07521225238937612
0.07016677777395533
0.06409246649722249
0.057379258729133215
0.05038546563387873
0.04342268510506822
0.03674516131422699
0.030544420064700546
0.0249492832806945
0.02003063541098487
0.015809740208199186
0.01226860440947904
0.009360892879632477
0.007022168737072692
0.0051786500257351735
0.0037541114722301275
0.002674912150446314
0.0018733462476271453
0.0012895918573396865
0.0008724778132978305
0.0005790100686464581
0.0003715839508953316
0.00020796030251815008
8.859856760435205e-06
-3.21913638210879e-07
-4.422404417686703e-05
-0.0001831533365232305
-0.0005165780465807036
-0.0011984484237821285
-0.0024452370917309152
-0.004538096837723163
-0.007817454346066973
-0.012669688623952593
-0.01950679678540303
-0.028741028942869267
-0.04075718074515797
-0.0558854705990594
-0.07437770919857438
-0.0963888873114725
-0.12196550893337277
-0.15104113699563862
-0.18343883322972748
-0.21887955763688635
-0.25699519421546185
-0.29734469270330943
-0.3394318328062752
-0.3827232798356805
-0.42666585410545366
-0.4707022291914094
-0.5142845641267597
-0.5568858321851402
-0.5980088170895126
-0.6371929001504087
-0.6740188609979253
-0.7081119674706006
-0.7391436466998297
-0.7668320198632042
-0.790941557002164
-0.8112820735941065
-0.8277072531812638
-0.8401128443408855
-0.8484346480503352
-0.8526463841921678
-0.8527575037790693
-0.8488109960955322
-0.8408812266762508
-0.8290718320770358
-0.8135136899619957
-0.7943629774362798
-0.7717993262188633
-0.7460240797113066
-0.7172586539070096
-0.6857430010932203
-0.6517341721424976
-0.615504969579878
-0.5773426792188026
-0.5375478626052373
-0.4964331853737572
-0.45432224747089633
-0.4115483696722588
-0.36845327672400857
-0.32538560093869134
-0.2826991118935259
-0.24075055953919994
-0.19989700207321812
-0.16049248007008815
-0.12288389943017579
-0.08740600338150309
-0.05437535389066853
-0.02408331037583618
0.0032119087499129957
0.027293869610167682
0.04799691033103768
0.06521495242096559
0.07890946618693256
0.08911580341964695
0.09594705339570372
0.09959460696662803
0.10032474963591165
0.09847086001629231
0.0944211619066522
0.08860244302556797
0.081460663296884
0.07343985800369245
0.0649611060546905
0.05640348978901259
0.04808885216141289
0.040271741338143055
0.033135270804922366
0.026792831029661363
0.021294825073471996
0.016639023295069923
0.012782851540062284
0.009655972127684131
0.007171830954612346
0.005237309896453462
0.0037601069769159336
0.002653857609051062
0.0018412420381961612
0.001255346048662286
0.0008391871235022997
0.00054184793277829
0.0003041547375050948
1.2898835721361972e-05
-6.215733399135518e-07
-7.767667923259311e-05
-0.0003095531150976412
-0.0008445909160154077
-0.001902400189740094
-0.0037789024297195492
-0.006842722359843048
-0.01152175903674379
-0.018280724330965687
-0.027591912815319412
-0.039902482956407984
-0.05560193061965738
-0.07499321839405658
-0.0982703084885807
-0.12550382741042784
-0.15663548050458265
-0.1914808196152054
-0.22973917753729498
-0.27100908262878487
-0.3148072597864558
-0.36058936890073773
-0.40777086198345813
-0.4557466805391047
-0.5039088963781331
-0.5516617672379237
-0.598433996398252
-0.6436882334749652
-0.6869280267574073
-0.7277025412496667
-0.7656094026574866
-0.8002960302579065
-0.8314597951855713
-0.8588472976951989
-0.8822530073098241
-0.9015174604891442
-0.9165251659769429
-0.9272023305744489
-0.9335144883878228
-0.9354640941843186
-0.9330881253114369
-0.9264557253668451
-0.9156659151143587
-0.9008453908196435
-0.8821464262432885
-0.8597448912374712
-0.8338383967386407
-0.804644572625243
-0.772399481263619
-0.7373561655450659
-0.6997833258193673
-0.6599641153470912
-0.6181950386645989
-0.5747849314307696
-0.5300539936353544
-0.4843328401121403
-0.43796152265288296
-0.3912884662048559
-0.3446692473578911
-0.2984651266628142
-0.2530412280017902
-0.2087642399433437
-0.16599949869446198
-0.12510730425184483
-0.08643832633965788
-0.050327981311489335
-0.017089712050112043
0.012992814620727985
0.03967446207493234
0.06275805087030785
0.08210400990817354
0.09763962744932081
0.1093671199458703
0.11736962565105886
0.12181419637413414
0.12295093251049931
0.12110760342995772
0.11667942343862378
0.11011409952946379
0.10189279407805085
0.09250819140395916
0.0824413378246914
0.07213924563462447
0.061995325512985484
0.052334484982758736
0.04340420454332213
0.035372148514460806