# vtk DataFile Version 4.1 
COMMENT
ASCII
DATASET STRUCTURED_POINTS 
DIMENSIONS 100 100 1 
ORIGIN 0 0 0
SPACING 0.12693303650867893 0.12693303650867893 0 
POINT_DATA 10000
SCALARS U double 1
LOOKUP_TABLE default
0.0
0.0
0.0
0.0
0.0
0.0
0.0
0.0
0.0
0.0
0.0
0.0
0.0
0.0
0.0
0.0
0.0
0.0
0.0
0.0
0.0
0.0
0.0
0.0
0.0
0.0
0.0
0.0
0.0
0.0
0.0
0.0
0.0
0.0
0.0
0.0
0.0
0.0
0.0
0.0
0.0
0.0
0.0
0.0
0.0
0.0
0.0
0.0
0.0
0.0
0.0
0.0
0.0
0.0
0.0
0.0
0.0
0.0
0.0
0.0
0.0
0.0
0.0
0.0
0.0
0.0
0.0
0.0
0.0
0.0
0.0
0.0
0.0
0.0
0.0
0.0
0.0
0.0
0.0
0.0
0.0
0.0
0.0
0.0
0.0
0.0
0.0
0.0
0.0
0.0
0.0
0.0
0.0
0.0
0.0
0.0
0.0
0.0
0.0
0.0
-5.085773085064734e-13
2.494497226126348e-10
3.224575781313808e-09
2.045353965488324e-08
9.176438953609923e-08
3.306379174829329e-07
1.0181161865467916e-06
2.777949930635836e-06
6.875706189738435e-06
1.5691784373915157e-05
3.341964610848323e-05
6.703319039269023e-05
0.00012754919245139336
0.0002315817855182097
0.00040314782919182747
0.0006756384157614469
0.0010938280322018883
0.001715755123241865
0.002614281898516715
0.0038781319309605564
0.0056122141858182305
0.007937071976768921
0.010987342887092714
0.014909176708996039
0.01985662722552761
0.02598710375472607
0.03345603347108208
0.04241094012962921
0.052985184840829036
0.06529163757280619
0.07941655345162144
0.0954139166785558
0.11330048930376399
0.133051765439783
0.1545989875203334
0.1778273337526498
0.20257533855051196
0.22863556350191186
0.25575649762253266
0.28364563375058377
0.3119736435827927
0.3403795568723937
0.36847683984899626
0.39586026256410484
0.42211344282048335
0.4468169536318585
0.469556879836303
0.4899337058497189
0.5075714093113308
0.5221266237642146
0.533297717201418
0.5408336121552093
0.5445421466374354
0.5442977425750215
0.5400481074822013
0.5318196437873425
0.5197211779958705
0.5039455533552448
0.48476856901356197
0.4625447229967539
0.4376992657695648
0.4107162417546541
0.38212252439959055
0.3524683406730103
0.32230538365282924
0.2921642131052729
0.26253307833627365
0.23384039090810171
0.20644270824632768
0.18061926350130988
0.15657294579960584
0.13443648090477933
0.11428171260227844
0.09612959249975321
0.07995882478812806
0.06571194281944044
0.053298617861208396
0.042596888324858716
0.03345352929432336
0.02568492239613178
0.01907966217546856
0.013403925202314758
0.008410427521409991
0.003851543199369384
-0.0005033315343655682
-0.0048469781397571495
-0.009312223444252088
-0.013951992870778399
-0.018726080057895427
-0.023499191158530507
-0.028053464868615166
-0.03211591954604692
-0.03539753010189752
-0.03763629403949743
-0.03863086147001772
-0.0382383326830131
-0.03626803822099609
-0.03206159477055502
-0.023090707740655043
-0.0010073767848857097
-8.864575584296624e-13
7.394414468414019e-10
7.470440947289537e-09
4.153028479134837e-08
1.6991265036295978e-07
5.693804505994522e-07
1.6495444303553113e-06
4.26644210527317e-06
1.0062258585183894e-05
2.1965297792179452e-05
4.487499611104112e-05
8.653873079422787e-05
0.0001586012150862713
0.00027777609800878694
0.00046705731261469454
0.0007568599495272627
0.0011859621042815988
0.001802114311987586
0.0026621940126839105
0.0038318088338228687
0.005384291860810598
0.007399080121093347
0.009959518688762901
0.013150181284306778
0.017053838711014613
0.021748234888752452
0.027302844239799933
0.0337757831822766
0.04121103360895134
0.049636109937375855
0.05906026696990247
0.06947330715844452
0.08084500663056535
0.09312514277479202
0.10624407489686193
0.12011380522543669
0.13462943131330535
0.14967089282979795
0.16510491541252004
0.18078706069508296
0.19656380357654835
0.21227457378543646
0.22775371728346086
0.24283235253612045
0.2573401157175659
0.271106806231328
0.2839639584612248
0.29574637671936554
0.3062936777746679
0.3154518897377961
0.32307515900922806
0.32902762094734117
0.3331854977815654
0.33543950114764615
0.3356976355533761
0.3338885164528445
0.3299653175814658
0.3239104233473288
0.31574075521194844
0.30551354309647655
0.29333202165106576
0.2793501826300642
0.26377539378134063
0.24686753026344635
0.2289333982184354
0.21031576154397413
0.1913772063683686
0.17248023723133618
0.15396609441557255
0.1361354444427943
0.11923402068351502
0.1034453804844075
0.0888913927783955
0.07563933008018604
0.06371307047179316
0.05310535804677696
0.043788451689284885
0.035721568759141356
0.028854803798882844
0.023130159172773973
0.01848068003004346
0.014828504749998217
0.01208226974367871
0.010134152542411299
0.008857121947322787
0.008103581741038018
0.007707148197452569
0.007489307352382906
0.007271848886592825
0.006894335828483416
0.006233915572863753
0.005223239843477825
0.003861875701834171
0.0022178852081443864
0.00041961060729908147
-0.0013559321194907858
-0.0028788469828204114
-0.0037987480103179884
-0.003409088466678886
-0.00017180267686797959
-7.37891695385748e-13
1.904670089505964e-09
1.7108266903407214e-08
8.947937321726594e-08
3.521811206816855e-07
1.1483648869727214e-06
3.259178987701518e-06
8.294534019980211e-06
1.9308905999119798e-05
4.170205622779931e-05
8.444971505253211e-05
0.00016168073761141163
0.0002945763120110467
0.0005135175166167088
0.0008603561172176585
0.0013906373696383671
0.002175570010169255
0.003303523404264219
0.004880838383570745
0.0070317670833276655
0.009897405615456187
0.013633546763495494
0.018407451553994866
0.024393611427251084
0.03176864002955842
0.040705489740506307
0.0513672289407372
0.06390063960075398
0.07842990074788858
0.09505061305352182
0.11382439569427383
0.1347742520740089
0.15788085959269396
0.18307989403402414
0.21026045461937073
0.2392646141221202
0.26988808179379914
0.30188193667363833
0.33495536590961206
0.3687793271526796
0.40299104547462217
0.4371992526948553
0.47099007916363644
0.503933513277795
0.5355903503602801
0.5655195578569854
0.5932859857880689
0.6184683477029513
0.6406673858739454
0.6595141135091193
0.6746779958723296
0.6858748927957679
0.6928745414632501
0.6955073185024088
0.6936699960442957
0.6873302114371467
0.6765294172050953
0.6613841714804877
0.6420857594103024
0.6188982723488341
0.5921553637678479
0.5622558906214152
0.5296584944242632
0.4948748829660101
0.45846121963729375
0.42100676532830605
0.38311893722428697
0.3454043994415645
0.3084466999265319
0.27278213656651595
0.23887660578926218
0.20710671328841823
0.1777480684315072
0.15097239023918554
0.12685314894503819
0.10537757699921407
0.08646169413275494
0.06996495574314657
0.05570225503512472
0.043452820230003096
0.032967310248109526
0.02397543633141462
0.0161963686349506
0.009353121356098672
0.003190500048973422
-0.0025053782097162794
-0.007889040130072278
-0.013042438556411021
-0.017969454235366947
-0.02259993247478991
-0.026803577482114163
-0.030412310692175877
-0.03324785509587772
-0.03514904687202861
-0.03598902023174467
-0.03565966922435211
-0.03395892285977327
-0.030181731736458595
-0.021804848601536912
-0.0009499928208515036
1.6185299171471388e-12
3.896422956045892e-09
3.223587874794943e-08
1.6122663411477758e-07
6.155701613876707e-07
1.9596824268309186e-06
5.44725147730878e-06
1.359967527312178e-05
3.10837970477468e-05
6.594381657388098e-05
0.0001312090490384603
0.0002468497105892431
0.00044199247352955974
0.0007572447831299868
0.0012469222401416153
0.0019809368341166646
0.0030460932821251493
0.004546560177722278
0.006603331500902182
0.009352567266409168
0.01294279119430685
0.0175310177674878
0.023277970071094993
0.03034262381065292
0.03887636474361456
0.049017072424809224
0.060883441926363815
0.07456982926738415
0.0901418601946583
0.10763298166838814
0.12704206749365435
0.14833212038162422
0.17143004791717403
0.19622743385697658
0.22258218191280776
0.25032087833274963
0.27924170256774095
0.309117711458344
0.33970033028253077
0.3707229017538038
0.4019041694753837
0.4329516032064817
0.46356450743298777
0.49343689018620795
0.5222601040632604
0.5497253044210307
0.5755257993472616
0.5993593909296477
0.6209308261641352
0.6399544869870291
0.6561574504781756
0.6692830400061536
0.6790949635580449
0.6853820947367439
0.6879638944512168
0.6866963996600733
0.6814786263894472
0.672259158744676
0.6590426370420474
0.6418958266406253
0.6209529440429227
0.5964199207099449
0.5685772630223516
0.5377810789519656
0.5044616684032172
0.46911884662551345
0.43231299333841927
0.3946508618163877
0.35676561697667947
0.31929148804671686
0.2828347262192081
0.24794393300326334
0.21508378761201272
0.18461627090033042
0.15679240236004613
0.13175541539840277
0.10955375101026335
0.09016004998635974
0.07349120139980672
0.05942482323321806
0.047809157898162515
0.03846568084197296
0.03118600215175785
0.025726283157792938
0.021803099045929048
0.019094460898215322
0.017248729240410012
0.015902582929682108
0.014707210987295247
0.013359698673335748
0.011634591032718947
0.009409441971436039
0.006678478541792102
0.003550971018455195
0.0002363222345841315
-0.0029715544773023204
-0.005675931096062281
-0.007242374645641136
-0.006374288834127702
-0.0002978391778225232
6.595094454176241e-12
5.4687775774154955e-09
4.55944369203075e-08
2.3260819204932262e-07
9.03317953699952e-07
2.909814569949008e-06
8.145388317016631e-06
2.040210267964202e-05
4.66495152139653e-05
9.879479334637303e-05
0.00019593221185394436
0.00036701930961129445
0.0006538372919366194
0.0011140172394642422
0.0018238545951099678
0.00288060340926454
0.0044039457581272175
0.006536371873502751
0.00944227848504467
0.01330568774822124
0.018326595176029307
0.024716059732928994
0.032690241399206336
0.042463662440559824
0.054242013164947867
0.06821483959804438
0.08454844098418204
0.10337927351597484
0.12480810892942501
0.14889513886744468
0.17565615428378045
0.2050598688904559
0.23702640084657106
0.27142688036318385
0.3080841142428903
0.34677421210148923
0.3872290628110402
0.42913954263762344
0.4721593373222757
0.5159092674661575
0.5599820184516378
0.6039471911819609
0.6473566066128452
0.6897498138827183
0.7306597673629636
0.7696186507203452
0.8061638347494018
0.8398439590780536
0.8702251249542657
0.8968971767761446
0.9194800341844843
0.9376300157264577
0.9510460717189149
0.9594758213226721
0.9627212708757082
0.960644081112952
0.953170253315713
0.9402941208538128
0.9220815634797753
0.8986724048224444
0.8702820016641328
0.837202071597886
0.7998008075681123
0.7585222579026042
0.7138847729470534
0.666478019352782
0.6169576752210281
0.5660365523132723
0.5144707270539834
0.46303951059895504
0.41251889993976787
0.3636495089205732
0.3171016215691801
0.2734414620178237
0.23310347936526843
0.196372996124458
0.1633819261618068
0.1341178448525141
0.10844423436278167
0.08612800775050011
0.06686990756840654
0.0503340370870392
0.036174111440753436
0.024055327720080538
0.01367154324265279
0.004757630869158598
-0.0029032452992591154
-0.009477671523395776
-0.015085139461460551
-0.01980532290568982
-0.02368771814374381
-0.026761527465728616
-0.029043730247225303
-0.0305430038765719
-0.03125409831717602
-0.03112478010700864
-0.02993694422684329
-0.02692329970896793
-0.01960377745440804
-0.0008521053802972592
-4.607197422339529e-13
-1.5295146637294798e-10
2.0671848140763478e-08
1.79370853736591e-07
8.824417821070622e-07
3.2339513641881333e-06
9.776010111468216e-06
2.5684982515669748e-05
6.0523824558939665e-05
0.00013059620576698488
0.00026186456728071594
0.0004932926792207516
0.0008803699912794552
0.0014984888116360985
0.0024457930481611607
0.0038451105222124795
0.005844623727146287
0.008617022185692814
0.012357002036750888
0.01727711922218136
0.02360214396911351
0.0315621896431308
0.04138498540880559
0.05328772126794506
0.06746891304451905
0.08410071572215976
0.10332206204156036
0.12523292776069303
0.14988993490578711
0.17730340900025593
0.207435913882107
0.24020220486123836
0.27547047223247983
0.31306469521163854
0.3527678921248065
0.3943260356659404
0.43745240071400904
0.4818321243673273
0.52712678096449
0.5729788062961765
0.6190156424651467
0.664853515660845
0.7101008015202925
0.75436097509237
0.7972351833035487
0.8383245159901429
0.8772320857860404
0.9135650560758758
0.946936778207997
0.9769692122175588
1.0032958071157518
1.0255650049089062
1.0434445047635295
1.0566263788789347
1.0648330700555684
1.0678242253736414
1.065404236326051
1.057430271470383
1.043820513603968
1.024562260679622
0.9997195272417937
0.9694397942983086
0.9339595928633128
0.893608647777655
0.848812316691229
0.8000919901736345
0.7480629414148121
0.6934288386963074
0.6369718423840762
0.579537061423901
0.5220103495493778
0.46528915079504307
0.4102473827110279
0.3576969604367182
0.30835005552464667
0.26278696320136835
0.22143403859861693
0.1845544355923293
0.15225173082824703
0.12448377355850045
0.10108224945622304
0.08177319525581178
0.06619515287950226
0.05391421233521121
0.044437800629828376
0.03723064695157931
0.031736242166156364
0.02740534464579063
0.02373032584080516
0.020281390948581442
0.016738898397627454
0.012915756687548192
0.008765443338966417
0.0043747049358536004
-5.377114097445017e-05
-0.004211473025194619
-0.0076439220347626425
-0.0095615577371178
-0.0083038756542147
-0.00037663560773898685
-1.0038029215705824e-10
-3.592413336402782e-08
-1.5667384235375116e-07
-3.6471704407793706e-07
-3.801584303145544e-07
8.952247698729838e-07
6.3803481086096725e-06
2.2442502367035225e-05
6.126226825879392e-05
0.00014395779425474761
0.0003043681878922438
0.000593260422885549
0.0010826006736547906
0.0018694436758877695
0.003078960919921585
0.004866158745316558
0.007415928048362794
0.010941205580229835
0.015679192918043712
0.021885750402163836
0.02982823806065472
0.039777196628457426
0.05199733849105059
0.06673834704741582
0.08422596629893814
0.10465380804030018
0.12817622246360577
0.1549024809681108
0.18489241860861308
0.2181535872849889
0.25463988643429375
0.2942515699939552
0.3368364786910804
0.3821923151981191
0.43006976481859577
0.48017626363426036
0.5321802265164172
0.5857155660788528
0.6403863577383795
0.6957715331327721
0.75142951224418
0.8069027121436425
0.8617218961522842
0.9154103505713332
0.9674878963812076
1.0174747600605958
1.0648953407046096
1.109281919863169
1.1501783660960627
1.1871438884841437
1.2197568928162859
1.2476189916684164
1.2703592159953765
1.2876384719779512
1.299154283153471
1.3046458540691637
1.3038994866221263
1.2967543715933985
1.283108762447047
1.2629265126738283
1.2362439186039214
1.2031767543745566
1.1639273128517351
1.1187911728729365
1.0681632925423723
1.0125428685659663
0.9525361890518753
0.888856438583315
0.8223191184944524
0.7538315068810425
0.6843745529631294
0.6149759730906728
0.5466742592934397
0.4804748641912639
0.41730179728526023
0.3579498025821255
0.3030435505252586
0.25301025616114997
0.20807050588533296
0.1682490079849423
0.13340317841747612
0.10326397409772325
0.07748121628281734
0.055665438531810385
0.0374200569142427
0.022360797191839612
0.010122858913719312
0.0003592579403040252
-0.007264552924369776
-0.013074618706734788
-0.017387170927293676
-0.020500520946993197
-0.02268085669476159
-0.024143498638241195
-0.02502806362238977
-0.025353000687686013
-0.02489711556080063
-0.022855239373421654
-0.01686177681333315
-0.0007306446732284307
-5.89229534400844e-10
-1.655047336058048e-07
-7.828990083441115e-07
-2.3057485184629334e-06
-5.107856567744978e-06
-8.821820849633886e-06
-1.1021597602384058e-05
-5.047749974519143e-06
2.3137513800189015e-05
9.903480656773305e-05
0.0002644245670546182
0.0005825334610415985
0.0011430262784600557
0.002066223600937698
0.0035059517653960605
0.005650521579482305
0.008721492523616496
0.012970085274010841
0.018671327129842905
0.026116222387585316
0.03560240809385657
0.04742386846963409
0.0618603316727293
0.07916696236495015
0.09956490166414855
0.12323310580618987
0.1503018113456564
0.18084782267562904
0.21489168966361794
0.2523967288895944
0.2932697476241664
0.33736325846209886
0.384478924967312
0.4343719533655502
0.48675613953160685
0.5413092908752286
0.5976787656596358
0.6554869043733154
0.7143361659800584
0.7738138236409957
0.8334961177962805
0.8929518077573722
0.9517451050517258
1.0094380118557758
1.065592125323497
1.119770002905704
1.1715362142190617
1.2204582308089595
1.2661073250921266
1.3080596623736391
1.345897773413704
1.3792125879552533
1.4076061908283553
1.4306954317176268
1.4481164790001713
1.4595303606597787
1.464629486185932
1.463145098322524
1.4548555675035273
1.4395954171238858
1.4172649524457452
1.3878403527139318
1.3513840628270122
1.3080552721881864
1.258120177614206
1.2019615795124725
1.1400871459176767
1.0731353974137303
1.0018781364723388
0.9272177183444154
0.8501773328989896
0.7718824791468758
0.6935322302642041
0.6163598357611496
0.5415837021406956
0.47035165735282247
0.4036832520038395
0.3424161611225055
0.28716303621192146
0.23828416794468393
0.1958791895602541
0.15979829775763177
0.12967081735778854
0.1049470382056773
0.08494842679308305
0.06892145460212885
0.056090972977523385
0.045709826867798606
0.037101954605771224
0.029696582875485242
0.023051535389686583
0.016864433003843382
0.010971952245444465
0.005339779872180198
5.0771878009252155e-05
-0.004690231740407068
-0.008491113247597049
-0.010549114726445796
-0.009083750701155672
-0.00040444076838162644
-2.3517045798574604e-09
-5.441816358804374e-07
-2.5394572307329627e-06
-7.629885461268836e-06
-1.7981290077058734e-05
-3.549432862407574e-05
-6.007434779315167e-05
-8.670896379102261e-05
-0.00010125958707916612
-7.509388274958704e-05
4.1070196296528814e-05
0.00032352176008346455
0.000881385527587249
0.0018611524809915366
0.0034492185126411196
0.005871913415135392
0.00939275056581062
0.014306907276928618
0.020933215711395187
0.02960416925211571
0.04065460508659087
0.05440979949513107
0.07117370939241957
0.0912180234720597
0.11477256655229483
0.1420174516740558
0.17307721572395757
0.20801702238795586
0.24684088330282056
0.2894917418808078
0.33585318760367744
0.3857525212296757
0.4389648704005615
0.4952180561121507
0.5541979283088779
0.6155539184011913
0.6789045931997856
0.7438430347824124
0.8099419111761768
0.8767581412969085
0.9438370929175282
1.0107162837285557
1.0769285824766353
1.142004929763039
1.2054766166805964
1.2668771746160645
1.3257439419741714
1.3816193841465205
1.4340522526685764
1.4825986790499655
1.526823308907184
1.5663005931011575
1.6006163644180975
1.6293698401984096
1.6521762019673998
1.6686699109670289
1.6785089218464464
1.6813799540277368
1.6770049697921232
1.6651489877996486
1.6456293270712472
1.6183263235926846
1.583195480856267
1.5402808953989662
1.4897296262710342
1.4318064429571002
1.3669080855230535
1.2955758115967382
1.218504614252593
1.13654712790685
1.0507099874151853
0.9621403994648102
0.8721010819019278
0.78193266864169
0.693004224119387
0.6066545523378873
0.5241291827833469
0.4465197147142089
0.3747129583022449
0.3093565188347538
0.2508450148150953
0.19932744459205357
0.15473227436054726
0.11680379655101766
0.08514217245615362
0.05924067195776789
0.038516493906496904
0.02233507730292376
0.010030667809558108
0.0009270804500758023
-0.005638190649717185
-0.010285580789673109
-0.0135622583239467
-0.01591042555923334
-0.017634008073154406
-0.01884996707381163
-0.019377494139477834
-0.01844078347679285
-0.01389046693075747
-0.0005994921941575148
-7.695716441249282e-09
-1.5161828889006882e-06
-6.856766237607819e-06
-2.032266989583941e-05
-4.8033705758632985e-05
-9.697479320705036e-05
-0.00017265157189342445
-0.00027507031173834616
-0.0003930180980071687
-0.0004969481279542559
-0.0005310984092595137
-0.0004057196943678936
9.59355514617808e-06
0.0008905119151947658
0.002459745912161191
0.004985509543265613
0.008776550841519026
0.014173986713158638
0.021540489998278036
0.03124760282044378
0.04366207325979218
0.05913213129471387
0.07797454814094625
0.10046318314145168
0.1268195407312219
0.15720566257855115
0.19171948871827815
0.23039265252450575
0.27319053766289764
0.32001432493187315
0.3707046927653451
0.42504680352845825
0.4827762031336769
0.5435852777680037
0.6071299426270104
0.673036278162362
0.7409068750997698
0.8103266970445022
0.8808683165001382
0.952096425040513
1.0235715602921138
1.0948530308643765
1.165501055270063
1.235078162235711
1.3031499276935787
1.3692851482131365
1.4330555716017432
1.4940353226603922
1.551800175252905
1.6059268304896732
1.6559923645598105
1.7015740084770568
1.7422494162001483
1.7775975685217869
1.8072004500137435
1.8306456282472823
1.8475298619730307
1.8574638709964773
1.8600784164576447
1.855031864165663
1.8420194287549312
1.8207843099788448
1.7911309156921504
1.7529402957442661
1.706187762710916
1.6509624285284679
1.5874880296461245
1.516143951405846
1.4374848189769451
1.3522564452739023
1.2614053924562862
1.16607902342571
1.067612840609387
0.9675023072067563
0.867357393854169
0.768839897783239
0.6735860934689394
0.5831202060584347
0.498766995887923
0.4215736549257387
0.35225149689856283
0.2911461013719463
0.238240704790688
0.19319240621011
0.15539536357096703
0.12406094601227317
0.09830283699241779
0.07721575420100465
0.05993938370124413
0.045703316819015315
0.03385299876380396
0.023859954297450442
0.015321503247491739
0.00795646504459415
0.0016060555505141706
-0.0037423795916520304
-0.007869366762595148
-0.010091011565822913
-0.008734212752627478
-0.0003834584823809871
-2.2051446399344777e-08
-3.787449190726117e-06
-1.65226159210305e-05
-4.782317753713472e-05
-0.00011149266985113327
-0.0002242355244297039
-0.00040228895522807686
-0.0006557014332179489
-0.0009804038929179134
-0.0013486866480042967
-0.0016990960658224712
-0.0019270111149937105
-0.001877199355176889
-0.0013394799981404698
-4.827661205892686e-05
0.0023136082408998816
0.006107140108302046
0.01172569291289962
0.01958107786772591
0.030088046415937143
0.04364840307187364
0.06063579086555583
0.0813820448383019
0.10616578353687812
0.13520366008493792
0.16864445325943964
0.2065659671709723
0.2489745390208525
0.2958068333652659
0.34693352735707705
0.4021644591565072
0.4612548132285822
0.5239119428537524
0.5898024734851011
0.6585593832969991
0.7297888135429252
0.8030764168518073
0.8779931034138729
0.9541000913748697
1.0309532078084316
1.1081064201601214
1.1851146052923343
1.2615355847480476
1.3369314713459484
1.4108693846355211
1.4829216021349922
1.5526652208214913
1.6196814102882706
1.683554346559715
1.7438699248502465
1.8002143613619765
1.852172808907385
1.8993281286143389
1.9412599797332741
1.9775444109919782
2.0077541596064936
2.031459888030949
2.048232614399801
2.057647620942984
2.0592901546956424
2.0527632625447363
2.037698118398551
2.013767186883662
1.9807005005495324
1.938305175931496
1.8864880286913164
1.8252807504959099
1.7548665830466557
1.6756068022283213
1.5880646792001558
1.4930240212330723
1.3914990416946442
1.284732297581073
1.1741778755246182
1.061467968436609
0.9483624595916826
0.8366830214996134
0.7282353390665208
0.6247250717485834
0.5276746978492861
0.43834905789195155
0.3576969637245246
0.2863146146709755
0.2244339935639037
0.17193639313715126
0.12838836537523174
0.09309524726906657
0.06516630661390488
0.04358545473433204
0.027282101866829247
0.015197700454055633
0.006344575620096802
-0.00014512077925357347
-0.004980361631768547
-0.008677293794018761
-0.01151414730916816
-0.013433086165768153
-0.013794342459457301
-0.010794089841455572
-0.0004635799055707515
-5.7164413132903894e-08
-8.71277945786382e-06
-3.663608483607085e-05
-0.00010318378388442076
-0.00023578601082971935
-0.0004678557715458104
-0.0008336441785087595
-0.0013598569377891161
-0.002054527103635355
-0.0028942597903399785
-0.0038114118075750414
-0.004682946324261942
-0.005322579727668224
-0.005477451350251966
-0.00482998278615776
-0.0030049620168516636
0.000418704149161296
0.005892593502124791
0.013881045760308495
0.02484253843137984
0.03921152254048525
0.05738188472179624
0.07969292401833086
0.10641841856782736
0.1377590504138988
0.1738381861949103
0.21470079554114152
0.26031513472079015
0.3105767287893644
0.36531414373564136
0.42429604028105067
0.48723903160466114
0.5538159175858103
0.6236639291122426
0.6963926806071016
0.7715915922787377
0.8488366026169064
0.9276960447207476
1.0077356065662755
1.0885223353970217
1.1696276805181116
1.250629597510121
1.3311137608756918
1.4106739519280633
1.4889117047467606
1.5654353055691472
1.6398582502893142
1.7117972710236287
1.780870046287705
1.8466927107274766
1.9088772803940268
1.9670291095171881
2.0207444963953427
2.0696085616876707
2.1131935348516615
2.1510576068016647
2.1827445421482996
2.2077842951327336
2.225694940691302
2.2359863143670347
2.2381658459902836
2.231747159684032
2.2162620759217857
2.1912766596848936
2.156411873055855
2.1113691665245193
2.055960938835924
1.9901451820315574
1.9140628064013527
1.8280751533777142
1.732798154437237
1.6291286463179084
1.5182577310053955
1.401666031106229
1.281096483860462
1.1585021064751906
1.0359689551993043
0.9156180546658762
0.7994938788269413
0.6894502659670302
0.5870465903057737
0.4934668608843421
0.4094718380234173
0.335389513218247
0.2711432977026263
0.2163113727114883
0.1702063035117921
0.13196224473600932
0.10061814415862486
0.07518871310318372
0.05471938515914244
0.03832571651628713
0.025220843512879475
0.014736879957598186
0.006349191366231453
-0.0002800505250094715
-0.005205350328728317
-0.007984470423278555
-0.007260561000517081
-0.00031522767583121213
-1.3668561605380549e-07
-1.874482571727677e-05
-7.60154275337864e-05
-0.00020808632636074912
-0.0004648350099062338
-0.0009061124818536432
-0.0015935733197249462
-0.002578232410367395
-0.0038848698008601672
-0.005495155997381031
-0.007331779724315637
-0.009245851033233355
-0.01100944831988746
-0.012314483504496534
-0.012778225872037766
-0.011955007591174386
-0.009352960778742335
-0.00445418789265262
0.0032634275112292895
0.014304521610120028
0.029136187542472644
0.04817072614504195
0.07175198602609756
0.10014567161524632
0.1335336471365134
0.1720119856263485
0.21559231498972703
0.26420589530395133
0.3177098126855438
0.3758946803590516
0.4384932813803066
0.5051896551994076
0.5756282097632844
0.6494225229532542
0.7261635755094074
0.8054272283777566
0.8867808187345626
0.9697888002747365
1.0540173950509428
1.139038257050749
1.224431172843803
1.3097858431084308
1.3947028017191148
1.478793537367901
1.5616798874148132
1.642992775845879
1.7223703679294669
1.7994557144962304
1.873893959800519
1.9453291896470069
2.0134010017447563
2.0777408887996454
2.137968537331862
2.193688162394869
2.2444850214702483
2.2899222817079714
2.329538456095687
2.362845679411135
2.389329167082061
2.408448290718704
2.4196398103387597
2.4223239154338354
2.4159138256292434
2.3998297562582067
2.3735180241777303
2.3364759087509746
2.288282549645158
2.228635629568314
2.157392856253506
2.074616360469365
1.980617141870688
1.8759957337642348
1.7616744584895492
1.638916158422022
1.509324269987237
1.3748197129140745
1.2375914293849952
1.1000196099835868
0.9645736535187215
0.8336905025757231
0.7096427019009567
0.5944086269614338
0.48955898841278084
0.39617320847538495
0.3147962543929316
0.2454412835492403
0.18763694048607893
0.14051173756341268
0.10290309178390424
0.07347632490371908
0.050839592579677316
0.033643881089630366
0.02066206392621119
0.010846899290276556
0.003375110217781601
-0.002304574626265944
-0.006383394221459902
-0.008500635466991986
-0.007361939477084631
-0.00031455948427287653
-3.0534974940581005e-07
-3.809716189813368e-05
-0.00014915990179276866
-0.0003968116823268379
-0.0008656231917544481
-0.0016544070335146217
-0.002863152920766225
-0.004574689084024497
-0.006833198349814715
-0.009622503114984972
-0.012847248559161587
-0.01631974604971486
-0.019754409088475408
-0.022770624849384028
-0.024903779820785565
-0.025623192177904104
-0.024355026011844406
-0.020507927534944133
-0.013499116590256321
-0.002778924703993754
0.012147795704819019
0.03170445075812924
0.05623021633783023
0.08597236632040038
0.12108313963047045
0.16162061266860084
0.20755289313538877
0.2587648907459261
0.3150669294547445
0.3762045230979972
0.44186872225236057
0.5117065387052582
0.5853310535685624
0.6623309081410956
0.7422789589330633
0.8247399481763364
0.909277098760422
0.9954575889684035
1.0828568992072312
1.1710620517653088
1.259673786950197
1.3483077359362816
1.4365946631462816
1.5241798595768952
1.6107217735197406
1.6958899668723917
1.7793624839309194
1.8608227155843178
1.9399558358230553
2.0164448804197654
2.0899665309681184
2.160186663082839
2.2267557178611455
2.2893039635456938
2.3474367330312815
2.4007297561906547
2.4487247581249747
2.4909255697335455
2.526795099431631
2.555753646823291
2.5771791993422526
2.590410533097325
2.5947541202930093
2.5894959935937676
2.5739197811411008
2.5473320368422847
2.5090956725449924
2.4586716824101753
2.3956683969321033
2.319896236191735
2.2314244560894716
2.130634901484962
2.018266583587798
1.8954443108336247
1.763684913395243
1.6248759831730168
1.4812244862272115
1.3351758557222608
1.189307806468872
1.046206571218975
0.908335972355037
0.7779112317546503
0.6567893877309344
0.5463865664545008
0.44762933521614356
0.3609433748438865
0.28627836404580914
0.2231639740402079
0.17078888244936816
0.1280931857526372
0.09386466808279648
0.06683091792688658
0.04574198596644144
0.029442067230651087
0.016934156035632097
0.007450299038152311
0.0005533510538672733
-0.0036915873124238035
-0.004466328672388449
-0.00019279051528773913
-6.431778256488321e-07
-7.367151177252812e-05
-0.00027883436150421317
-0.0007211614226703407
-0.0015358259772693542
-0.002875428033430285
-0.004889501501621255
-0.007698136940894021
-0.011363307174595926
-0.015862101538854072
-0.021065851641105793
-0.026728187730464387
-0.03248366513498824
-0.03785706484530941
-0.04228209326047125
-0.045127190359755
-0.045725601629017384
-0.04340677333470228
-0.03752641362153183
-0.02749310211659094
-0.012789997763072462
0.007009126627734596
0.03222968960033226
0.06309163255736677
0.09970962889738877
0.14209732723876908
0.19017471005727632
0.24377766551036048
0.3026689486888146
0.3665498224673713
0.43507179626166137
0.5078480080881166
0.5844639117306525
0.6644870315237354
0.7474756306386243
0.8329862053924931
0.92057976979754
1.009826933627077
1.1003118060028805
1.1916347769452187
1.2834142431482702
1.3752873527589422
1.466909848157371
1.5579550864671343
1.6481123154485475
1.73708427818856
1.8245842142303041
1.9103323181360428
1.9940517096247676
2.0754639630859524
2.154284239246401
2.2302160590447535
2.3029457606847994
2.372136687304036
2.4374231674464446
2.4984043773544866
2.5546382179057208