# vtk DataFile Version 4.1 
COMMENT
ASCII
DATASET STRUCTURED_POINTS 
DIMENSIONS 100 100 1 
ORIGIN 0 0 0
SPACING 0.12693303650867893 0.12693303650867893 0 
POINT_DATA 10000
SCALARS U double 1
LOOKUP_TABLE default
0.0
0.0
0.0
0.0
0.0
0.0
0.0
0.0
0.0
0.0
0.0
0.0
0.0
0.0
0.0
0.0
0.0
0.0
0.0
0.0
0.0
0.0
0.0
0.0
0.0
0.0
0.0
0.0
0.0
0.0
0.0
0.0
0.0
0.0
0.0
0.0
0.0
0.0
0.0
0.0
0.0
0.0
0.0
0.0
0.0
0.0
0.0
0.0
0.0
0.0
0.0
0.0
0.0
0.0
0.0
0.0
0.0
0.0
0.0
0.0
0.0
0.0
0.0
0.0
0.0
0.0
0.0
0.0
0.0
0.0
0.0
0.0
0.0
0.0
0.0
0.0
0.0
0.0
0.0
0.0
0.0
0.0
0.0
0.0
0.0
0.0
0.0
0.0
0.0
0.0
0.0
0.0
0.0
0.0
0.0
0.0
0.0
0.0
0.0
0.0
-8.011080970846568e-13
3.9293179081732415e-10
4.341690516271591e-09
2.4580362719245075e-08
9.990473246940417e-08
3.2875783830242367e-07
9.296525565116868e-07
2.3392299070432048e-06
5.357765755913312e-06
1.1348204619716101e-05
2.2488111267634147e-05
4.206473475794841e-05
7.479279392516821e-05
0.00012712425913446673
0.00020751119476252884
0.00032657837969417595
0.000497163193243703
0.0007341866502780443
0.0010543311421622673
0.0014755162309078962
0.002016181978992119
0.002694407677886395
0.0035269103643958345
0.004527980382175043
0.005708419173849868
0.007074546838938624
0.008627343787755216
0.010361782671425191
0.012266394726861486
0.01432310006360991
0.01650731564249495
0.018788339083468778
0.02112999212163134
0.023491495357393782
0.025828536459159106
0.028094487409606083
0.030241722705902724
0.03222298938300346
0.033992780931930075
0.03550867015187297
0.03673256020088513
0.03763181811290278
0.03818026040711243
0.03835896579337297
0.03815689513944317
0.03757130368433733
0.03660793493580685
0.03528098985670091
0.033612868989024706
0.0316336893158731
0.029380582185793314
0.026896783780427955
0.024230535589670477
0.02143381922954872
0.018560957544466287
0.01566712184234876
0.012806792564965886
0.010032226656404604
0.007391988170290983
0.004929598168245105
0.002682355091609274
0.0006803677643855821
-0.0010541686643603025
-0.0025074358322104656
-0.0036741861714010638
-0.0045576646022392996
-0.0051692540049863315
-0.005527836230415855
-0.005658857405366263
-0.005593091416561616
-0.005365114838329002
-0.005011542401982161
-0.004569119978680923
-0.004072820405042373
-0.003554120190386892
-0.0030396369239432163
-0.0025502700586913832
-0.002100915637139129
-0.001700734668232073
-0.0013538689454699396
-0.0010604398927224886
-0.0008176490313647218
-0.0006208224663853394
-0.00046429326373467717
-0.0003420751498116188
-0.00024833068989792416
-0.000177666918153317
-0.00012530081021811616
-8.713248918627789e-05
-5.9754248092298486e-05
-4.041484796668906e-05
-2.695362958514979e-05
-1.771697903511166e-05
-1.1468522343612587e-05
-7.3024985256127525e-06
-4.566672527377264e-06
-2.797092583363526e-06
-1.6604357514158155e-06
-8.790013655815792e-07
-3.83481346485831e-08
-1.6545366199368487e-12
1.3772955945347799e-09
1.2322324871497812e-08
6.162194511637965e-08
2.2849727583821266e-07
6.975977165498508e-07
1.849052978126747e-06
4.391632105078349e-06
9.542269565814819e-06
1.9247549458756956e-05
3.643307290500121e-05
6.52565542724803e-05
0.00011133198624199941
0.00018188724231416533
0.0002858175319381848
0.00043360284281255575
0.0006370685539539817
0.0009089834889704032
0.0012625068018644386
0.0017105119125776884
0.0022648299779331233
0.0029354652797869687
0.003729839317555672
0.00465211899608616
0.005702677565375964
0.006877725982802946
0.008169138618402964
0.009564482348872564
0.01104724364915999
0.012597235598393259
0.014191156706828916
0.015803266666064887
0.01740614065141842
0.01897146345089779
0.02047082699672814
0.021876499215797506
0.023162137814810965
0.02430342900864821
0.025278637691669572
0.026069061653297858
0.026659387785393823
0.02703795257654847
0.02719691240557362
0.027132331195096834
0.026844193902497506
0.026336354202584247
0.025616423691954365
0.024695608195491457
0.02358849449919524
0.022312788340358495
0.020889002091786367
0.019340088695369465
0.017691017524251736
0.01596828852544401
0.014199383738504805
0.01241216047132646
0.010634198067164823
0.008892119769326924
0.007210921353103024
0.005613346766160234
0.004119355151934512
0.002745720383419833
0.0015057915379351244
0.0004094206082608836
-0.0005369646792892763
-0.0013301931652996565
-0.0019701565437321507
-0.002459658572297402
-0.0028043522070577078
-0.0030127636131161944
-0.003096344950575295
-0.0030694485672273742
-0.002949094723275111
-0.002754428193308921
-0.002505827178043515
-0.002223724670983597
-0.0019272975885181105
-0.0016332387830188734
-0.001354827556229534
-0.0011014520443967015
-0.0008786314944123591
-0.0006884732591279575
-0.0005304148704255507
-0.00040206907424791306
-0.00030001120818117937
-0.00022040634139394998
-0.00015944134350512842
-0.00011358069164319826
-7.969227588185905e-05
-5.509198950459607e-05
-3.754349029699933e-05
-2.5233809940609573e-05
-1.673419409848319e-05
-1.09507373669623e-05
-7.068986618968639e-06
-4.4973933224074945e-06
-2.813582462525622e-06
-1.711789094210313e-06
-9.276636340094416e-07
-4.1255666266334246e-08
-1.7632752284865663e-12
4.52428740992944e-09
3.565424390803152e-08
1.6489786681376924e-07
5.775598665210078e-07
1.6855908065444773e-06
4.304566201008601e-06
9.905649388212387e-06
2.0943947392064975e-05
4.125125044946255e-05
7.646560757257249e-05
0.00013445521491772913
0.0002256826376565625
0.0003634500335654766
0.0005639684396076586
0.0008462046676236225
0.0012314769160124517
0.0017427926772380226
0.002403947017368548
0.0032384227314894883
0.004268153447125424
0.005512224362400913
0.006985591797370908
0.008697901911902525
0.010652481477565902
0.012845560814902028
0.015265772638163741
0.017893952420390713
0.020703247720586834
0.023659527136453647
0.026722065214790692
0.02984446841107422
0.032975799297230816
0.03606185160416095
0.0390465270403075
0.041873265677345374
0.04448648448648567
0.046832982777095564
0.04886327830136535
0.050532843180202694
0.05180321419738086
0.052642957113435154
0.053028469268506136
0.05294460875476924
0.05238514179304879
0.05135300264926098
0.04986036252287182
0.047928505414193474
0.04558751014081914
0.042875738564579685
0.0398391308838329
0.03653030977079859
0.03300749650282305
0.029333244482215606
0.02557299924312949
0.021793499934746958
0.018061046152312923
0.014439666555080392
0.010989242211210837
0.007763657373954846
0.004809071312637335
0.002162422982357926
-0.00014970992067467404
-0.0021117811333149
-0.0037193845976656896
-0.0049787598734589425
-0.005905720301697195
-0.006524106690218395
-0.00686393736208154
-0.006959465287590551
-0.006847349223146434
-0.006565094044758155
-0.0061498273162004504
-0.005637380870242737
-0.005061571109617705
-0.004453547570055163
-0.003841115710584889
-0.0032480223155677973
-0.0026932855385400976
-0.0021907154007775862
-0.0017487749659215075
-0.0013708729617361967
-0.0010560779964534134
-0.0008001420846280194
-0.0005966550859675419
-0.000438142439569559
-0.0003169623563556013
-0.00022593204969872512
-0.00015868578659139924
-0.00010981772395623205
-7.488142424469088e-05
-5.031120650459844e-05
-3.331085952419648e-05
-2.1734964114179255e-05
-1.3974017238108197e-05
-8.847510977617406e-06
-5.50549242864832e-06
-3.3307198064140773e-06
-1.7945715020532834e-06
-7.881772630571634e-08
5.570684696880541e-12
1.3454802128727707e-08
9.517669104358417e-08
4.089094956984281e-07
1.3521727872198667e-06
3.7611142505475764e-06
9.211381531458965e-06
2.0418679611927454e-05
4.172421525281652e-05
7.962844185572733e-05
0.000143315433883713
0.0002450943542515885
0.00040067777805148115
0.0006292215445911572
0.0009530676851521886
0.0013971589927522902
0.0019881273359595784
0.002753093170125321
0.003718245976312062
0.004907300324048269
0.006339936961144669
0.008030341460014015
0.009985944819831954
0.012206452762526606
0.014683225968682049
0.017399045352990323
0.020328267847859332
0.02343735182009617
0.02668570929998432
0.030026825979667063
0.033409579978161304
0.036779686523327006
0.04008119728223226
0.04325798904277457
0.04625518559739394
0.04902046776798351
0.05150523839867158
0.05366562086256571
0.05546328042684615
0.056866067168824974
0.05784848671495711
0.05839201074767649
0.05848524299824902
0.058123958431024234
0.057311033710397336
0.05605628605345398
0.054376235455340996
0.05229380228170839
0.049837948598312885
0.04704326758656865
0.0439495211977664
0.04060112204070644
0.037046551590819085
0.03333770338941931
0.02952913726992581
0.0256772292332505
0.021839202036571803
0.01807202477576409
0.014431176924841159
0.010969284756811451
0.007734656838311995
0.004769770433388789
0.0021097904064134878
-0.00021876780110067457
-0.002199096566525162
-0.0038247345718744915
-0.00509966258262133
-0.006037782591973742
-0.006661783217419738
-0.007001486566019761
-0.007091858090069109
-0.006970915796938256
-0.006677778011544329
-0.006251033494873751
-0.005727517880845337
-0.005141467962151338
-0.00452393971390061
-0.003902348141869076
-0.0033000255101566897
-0.0027357797022109043
-0.002223526288770596
-0.0017721232891504393
-0.0013855303894671326
-0.001063347005540604
-0.0008016852547787566
-0.0005942458782705399
-0.00043342124606949564
-0.0003112619391578878
-0.00022020007179901287
-0.00015349645309600576
-0.00010544206146047499
-7.138019137391977e-05
-4.762199954211054e-05
-3.131420375267133e-05
-2.029621507645571e-05
-1.2964725451155089e-05
-8.149428253444277e-06
-4.985907734678758e-06
-2.7128573568062705e-06
-1.1917330663261802e-07
4.4695581274834836e-11
3.695870328269863e-08
2.389485825345542e-07
9.626496214372524e-07
3.0244972612397384e-06
8.058311390537844e-06
1.901017690760546e-05
4.075868016242701e-05
8.081920960869844e-05
0.00015006137044955414
0.0002633449990529656
0.0004399685379103854
0.0007038273456751581
0.0010831996355848501
0.001610111827810483
0.0023192782840343517
0.003246656292071442
0.004427699196850522
0.005895423116932747
0.007678421962541526
0.009798969946870744
0.012271341124038477
0.015100454153388397
0.018280921099757215
0.021796545711858257
0.02562028318065434
0.029714643116876376
0.03403249271395154
0.03851819906309808
0.04310903868506244
0.04773679808022417
0.052329490470092006
0.056813119597457454
0.061113430068641
0.06515759393668952
0.0688757939076357
0.07220267382237013
0.07507863630920679
0.0774509753491883
0.07927483778861918
0.08051401257262038
0.08114154977211603
0.0811402135137169
0.08050277390759876
0.07923214321798058
0.07734136103919027
0.07485343231571351
0.0718010208498462
0.06822599963984231
0.06417885815062296
0.059717965615448204
0.05490868889498413
0.049822363489672
0.0445351172247623
0.039126548098677424
0.03367826095659252
0.02827227212214268
0.022989296959056667
0.01790694263993477
0.013097837392498656
0.00862773858542504
0.004553675748104126
0.0009222013550740736
-0.002232158503096468
-0.004888141744200871
-0.00703854895825617
-0.008690472029819363
-0.009864838346347528
-0.01059520116757377
-0.01092578231575278
-0.010908872626742732
-0.0106018004656378
-0.010063762244129738
-0.00935284326133334
-0.008523523920746111
-0.007624866590387595
-0.006699436557937235
-0.005782868651076966
-0.004903893703848745
-0.004084615073709093
-0.0033408750880135753
-0.002682645421129405
-0.0021144682839114456
-0.0016360256526713993
-0.0012429031819475766
-0.0009275552588278864
-0.0006804010053143717
-0.0004909251411825531
-0.000348646025838163
-0.000243846907054677
-0.00016802711860292241
-0.00011409181886123015
-7.634122072701388e-05
-5.0335121950952874e-05
-3.270016966534926e-05
-2.09261643721204e-05
-1.3172103216284e-05
-8.066828781244602e-06
-4.388899379302147e-06
-1.9199287750663433e-07
1.890822546358295e-10
9.47129541230033e-08
5.665220300312055e-07
2.1536542772827403e-06
6.45372864444048e-06
1.6512561464733383e-05
3.7587613196669986e-05
7.803990009900395e-05
0.00015026622091250566
0.00027154864515126545
0.00046467893133496623
0.0007582177790249301
0.00118627423467725
0.0017877362420776666
0.002604942465266569
0.0036818490092869003
0.005061802998761028
0.006785079989164058
0.008886368386572125
0.011392389226752876
0.01431982481879369
0.01767369850233897
0.021446305378071375
0.025616746261599675
0.030151069905099918
0.03500298637244084
0.04011508060594507
0.0454204314533795
0.05084452811428133
0.05630737237776905
0.061725659642730066
0.06701494258764412
0.0720916964191594
0.07687522191801086
0.08128934033379755
0.08526385123082607
0.08873573971095543
0.09165013244926741
0.09396101239353252
0.09563170975805353
0.09663519221750726
0.09695418021665485
0.09658111435288345
0.09551800117111747
0.09377616173161277
0.0913759042365921
0.08834613805953676
0.08472394190305588
0.0805540936828572
0.07588856425227405
0.07078597141366674
0.06531098502138069
0.05953366864899971
0.05352873865178147
0.0473747179945126
0.04115296052948982
0.03494652215931548
0.02883885916649606
0.022912341516571517
0.017246580561990136
0.011916586491531765
0.006990791042324118
0.0025289950959584487
-0.0014196719181335932
-0.004818664872550351
-0.0076456641836338945
-0.009893779574155164
-0.011572141590610673
-0.012705719344680325
-0.013334247047341997
-0.01351022158830912
-0.013296044922974296
-0.012760512840891563
-0.011974968874894718
-0.01100951603699619
-0.00992968198649257
-0.00879385436327996
-0.007651656637232153
-0.006543259264247208
-0.00549946677105161
-0.0045423325003231315
-0.003686048474829064
-0.00293792502011187
-0.0022993743141181957
-0.0017668972424417543
-0.0013331107475795876
-0.0009878370861429154
-0.0007192270249584748
-0.0005148388979697786
-0.00036257267944063296
-0.00025137342566348395
-0.00017166282122116277
-0.00011551077870172567
-7.660081918254763e-05
-5.0061906152353443e-05
-3.223481663268663e-05
-2.041692975980797e-05
-1.2576494598477315e-05
-6.868391491118805e-06
-2.995765827342785e-07
6.332935746061148e-10
2.281958445269428e-07
1.2745427634693651e-06
4.5961132381939425e-06
1.3182561217065096e-05
3.247432857329975e-05
7.147362402546651e-05
0.00014394433923302873
0.00026954610230445994
0.00047471683750219864
0.0007931163326193113
0.001265473570572641
0.0019387394096484945
0.002864524314631017
0.004096885484560326
0.005689605469515901
0.007693163788732437
0.010151636624266045
0.013099764604227652
0.016560406842563533
0.02054255622706262
0.025040034090483537
0.030030920166022632
0.035477713751018575
0.04132817030108221
0.04751671816707368
0.05396633461580132
0.06059074847672443
0.06729683711389753
0.07398709540355566
0.08056207107523164
0.08692268125352416
0.09297234676573579
0.09861890172801123
0.10377625465186532
0.1083657929602051
0.11231753500009518
0.115571042410639
0.11807611134352987
0.11979326400022976
0.12069406277519759
0.12076126851346514
0.11998886249181315
0.11838194913032189
0.11595655346267066
0.11273932427927423
0.1087671507670569
0.10408669749596089
0.09875385978610508
0.09283313883793964
0.08639693351340472
0.07952474331870282
0.07230227499004305
0.06482044321223156
0.057174254582614964
0.0494615632573508
0.04178168719590225
0.03423387608288044
0.026915626462923295
0.019920846991450296
0.013337887511511918
0.007247460254061417
0.0017204998839045584
-0.0031839689304292854
-0.007420863048414062
-0.010960852191116076
-0.01379180627599289
-0.015919716230893687
-0.017368919301833367
-0.018181474011782786
-0.018415573333448693
-0.018142963073855437
-0.01744544444821846
-0.01641067268413379
-0.015127592332973352
-0.013681941584060756
-0.01215228028360383
-0.010606931293090064
-0.009102078246913762
-0.00768106755029874
-0.006374769927991035
-0.005202719082946452
-0.004174694987215062
-0.0032924579655562104
-0.0025514369417190185
-0.001942284413993038
-0.0014522899525931594
-0.001066673033555816
-0.0007697613694754507
-0.0005460276088679237
-0.0003809332293767749
-0.00026153025246298275
-0.00017679869062126537
-0.00011773693106216545
-7.725622601075646e-05
-4.99458694262776e-05
-3.1763313506836655e-05
-1.9638925595202596e-05
-1.0746975845994716e-05
-4.670688388906258e-07
1.8437533098284058e-09
5.199605651618248e-07
2.731312812530978e-06
9.383046229546061e-06
2.5834335427949194e-05
6.140634103593415e-05
0.00013089545415812613
0.00025605798713711897
0.00046682647237000205
0.0008020071743154203
0.0013092422233274398
0.0020440941900168904
0.003068213630760828
0.004446663483422838
0.006244579285167569
0.008523424829778033
0.01133714841641587
0.014728551404698177
0.018726151054047444
0.023341761333546027
0.028568939251389962
0.03438236173527689
0.04073811954391487
0.04757484805695999
0.05481556502600336
0.06237005441783901
0.07013762272510476
0.0780100570726491
0.08587462952778091
0.09361701525789988
0.10112401977212516
0.10828603918823093
0.11499920478648555
0.12116718735047491
0.12670265699203154
0.13152840996445514
0.13557818549275422
0.13879720330011
0.14114245685934332
0.14258279907663304
0.1430988567312222
0.14268280808899728
0.14133805512478104
0.1390788180712944
0.13592967580856627
0.13192507107846374
0.12710879474979814
0.12153345841627146
0.11525995949982532
0.1083569377654516
0.10090021675484001
0.09297221817910861
0.08466133190466735
0.0760612190431829
0.0672700211578748
0.0583894452045019
0.0495236921640151
0.040778198155394865
0.032258160987809106
0.024066833463975455
0.016303577989122978
0.009061695579467335
0.002426066136554265
-0.0035293348177391007
-0.008743946241214896
-0.013173029219959994
-0.016789812107073608
-0.019587187910157837
-0.0215787639948894
-0.022799066181111775
-0.02330272528140215
-0.023162531148495077
-0.022466331614850746
-0.02131287895616304
-0.019806871965363692
-0.01805358282364586
-0.016153561341316482
-0.014197941139189178
-0.012264811164576181
-0.010416963055721033
-0.0087011097338849
-0.007148444632300863
-0.005776231337247382
-0.004590022560346578
-0.0035861173281140422
-0.0027539544848091484
-0.002078264864894388
-0.0015409168692261783
-0.0011224599287194526
-0.0008033920354983404
-0.0005651672717233832
-0.00039094183020628773
-0.0002660517750361375
-0.00017822866356054142
-0.000117582967045892
-7.640512494829875e-05
-4.8829129803054715e-05
-3.0324314878721875e-05
-1.6635023410028367e-05
-7.203537175058343e-07
4.850699208813522e-09
1.1258148965273082e-06
5.593880966668609e-06
1.8373046572579694e-05
4.868330128670322e-05
0.00011186862674124008
0.0002313100754483538
0.0004400776172297856
0.0007819905872504736
0.0013117908391152594
0.002094224440899851
0.00320196103321093
0.004712430541023392
0.006703798236320022
0.009250408171425665
0.012418086524482855
0.016259704929492906
0.020811363256204186
0.02608947259268882
0.03208891747058955
0.03878236761775726
0.04612070785775576
0.05403447074027939
0.06243609626383328
0.07122280858011949
0.08027988927589741
0.08948413669374944
0.09870732544397194
0.10781951412947616
0.11669208715855098
0.1252004540949483
0.13322636418493472
0.14065982256756698
0.1474006173122119
0.1533594827514668
0.15845893508403214
0.1626338217596559
0.1658316277368703
0.16801258034895672
0.1691495911656683
0.16922806869792198
0.16824563069461088
0.16621173959317473
0.1631472797245623
0.15908409032387433
0.15406446433878093
0.14814061945346463
0.1413741445878209
0.1338354222758268
0.12560302462982537
0.11676307790274995
0.10740858781887695
0.0976387147393704
0.08755798431209305
0.07727541558525151
0.06690354485819476
0.05655732022276409
0.04635283948103199
0.03640590382937688
0.026830362510136967
0.01773623079912714
0.00922757640149527
0.001400188433028566
-0.005660931077397422
-0.011884181451153003
-0.017213975608073216
-0.021613205069384217
-0.025065377717137377
-0.02757622134867044
-0.02917453297478432
-0.029912061410981478
-0.02986224604081048
-0.029117703679786968
-0.02778646082295162
-0.02598706609266849
-0.023842873338657394
-0.021475934282000172
-0.019001047138229792
-0.01652054014282043
-0.014120303451947099
-0.011867419320465545
-0.009809506831339434
-0.007975645414880096
-0.006378531130163802
-0.005017399535724187
-0.0038812384263131744
-0.0029518975413776825
-0.002206838951117036
-0.001621411573226069
-0.0011706380572090837
-0.0008305572124974737
-0.0005791782394868512
-0.0003970949273924135
-0.00026779879673175216
-0.00017772968344747752
-0.00011610597752461563
-7.456061432147783e-05
-4.649520240619958e-05
-2.555788338124071e-05
-1.1024861486269437e-06
1.1774724061616313e-08
2.32552442026727e-06
1.0981131463357385e-05
3.458872245576029e-05
8.839690260135443e-05
0.00019670650443420076
0.0003950751460112922
0.0007318763726775693
0.0012688111439190296
0.0020800783700530923
0.0032500813905732475
0.004869745934760752
0.007031715095979134
0.009824835419700988
0.013328433381644519
0.017606895143960296
0.02270500967175318
0.02864443140107779
0.035421484655342964
0.04300638988209866
0.051343860673999604
0.06035491433584877
0.0699396651473851
0.07998083024110345
0.0903476702428687
0.1009001044646203
0.11149277594813606
0.12197888737591199
0.13221367801210018
0.1420574590993878
0.1513781668751249
0.16005342653759777
0.16797214638902416
0.17503567930535416
0.1811585995846226
0.1862691483940319
0.19030940185158016
0.1932352135401854
0.19501597907523885
0.19563426511264115
0.1950853395385528
0.19337663395378502
0.19052716420508542
0.1865669297347307
0.18153630793232725
0.17548545542767455
0.16847372427243917
0.16056909711515785
0.1518476416689191
0.1423929809005034
0.1322957713447407
0.1216531777031022
0.11056832739247772
0.09914972399600719
0.08751059374354955
0.07576813444524354
0.06404263210998852
0.05245640739838071
0.04113255291860217
0.03019342424250301
0.019758853652860304
0.009944067349847418
0.000857305314589225
-0.007402831025723265
-0.014750244834196898
-0.021114325551440067
-0.026442905012414714
-0.030705004025493584
-0.03389314849657508
-0.03602500942480894
-0.03714411551927662
-0.03731940779980654
-0.03664345856633853
-0.035229266617615045
-0.03320566636604333
-0.030711543295042717
-0.027889215251930225
-0.024877491393007836
-0.021805024150263547
-0.01878459101624006
-0.015908860795003886
-0.013248014578976557
-0.01084933453878558
-0.00873859684307707
-0.0069228710740572835
-0.005394189003823432
-0.00413352398023338
-0.0031146066662151055
-0.0023072531968417404
-0.0016800463559482365
-0.0012023457439346563
-0.0008456871104239387
-0.000584665410224993
-0.000397397293295471
-0.0002656455689503634
-0.00017466874992328574
-0.00011281212371699257
-7.067466811103005e-05
-3.8932538021171796e-05
-1.6726761704788324e-06
2.671637677269261e-08
4.598405973142717e-06
2.0716056085216925e-05
6.274131096467452e-05
0.0001549544752242055
0.0003344292021772553
0.0006532612666957824
0.00117959590233147
0.001997034606686385
0.003202215432596917
0.004900620702217185
0.00720092119709064
0.01020836939602429
0.014017874116973942
0.018707412291308984
0.02433236691934452
0.03092124448117556
0.038473049198747236
0.04695640584400226
0.05631035336368783
0.06644659696000184
0.07725291614539335
0.08859738220779577
0.10033303562731169
0.11230270338611906
0.12434368719346209
0.13629211597065802
0.14798682056650675
0.1592726488606133
0.17000319080127305
0.18004292333988264
0.18926881425254524
0.19757144232285098
0.20485570089674865
0.21104115434674361
0.2160621144542348
0.2198674979029755
0.22242051843846536
0.22369825891128256
0.22369116018136875
0.22240245622307891
0.21984757801548857
0.21605354303544339
0.211058342379245
0.2049103336327712
0.19766764445357493
0.18939758926098002
0.1801760992769184
0.17008716423829867
0.15922228222205673
0.1476799119930769
0.13556491990977987
0.1229880105216347
0.11006512642076055
0.09691679858915739
0.08366742345545093
0.0704444373620249
0.05737735361546513
0.044596622533293155
0.0322322720442048
0.020412286929745095
0.009260690456810657
-0.0011046952387888255
-0.010574812510151136
-0.019052227165055682
-0.0264542149787286
-0.0327159602055869
-0.03779369910549154
-0.041667591637924294
-0.044344063347150825
-0.04585733525387843
-0.0462698606584147
-0.04567142167462496
-0.04417671051474653
-0.04192133290102036
-0.03905631982957269
-0.0357414079057458
-0.032137526972310045
-0.028399087197247277
-0.024666751512576014
-0.021061381476713412
-0.017679737019500555
-0.014592298387966881
-0.011843295069118366
-0.009452727501218049
-0.007419917262500793
-0.005727973023892357
-0.004348537271242602
-0.0032462714717809257
-0.0023827043677001397
-0.001719255885385706
-0.0012194105932741537
-0.0008501226920121711
-0.000582585388394816
-0.00039250301271738844
-0.0002599753375258953
-0.0001690184021458576
-0.00010645614092199334
-5.879452615134333e-05
-2.515387795354306e-06
5.716975937050224e-08
8.730008571639862e-06
3.7646070443241245e-05
0.00010987959048602803
0.00026270344163144006
0.000550661622719451
0.0010473458063508052
0.0018452524317791254
0.003053385652450473
0.004792607644441167
0.007189079335928576
0.010366414661622863
0.014437342509789623
0.019495712375240788
0.025609599353115416
0.032816089589522514
0.04111809839680156
0.050483331588072305
0.060845281838470495
0.07210598087078392
0.08414011740442427
0.09680008113833377
0.1099214969593384
0.12332885825550337
0.13684093891332536
0.15027574622268833
0.16345485985701297
0.17620707694445328
0.18837134496234423
0.1997990106884762
0.21035544492435285
0.21992112088433344
0.22839223155932709
0.2356809308097808
0.24171527707027687
0.24643894961936155
0.2498107971474166
0.25180426809606576
0.2524067627392448
0.251618938648119
0.24945399416917058
0.2459369487973177
0.24110393468154317
0.2350015097442562
0.22768599980156257
0.21922287442945124
0.20968615894859646
0.1991578826476179
0.18772756110799804
0.17549170812941609
0.16255337018705746
0.14902167348855866
0.1350113704410479
0.1206423685941519
0.1060392208190606
0.09133055059779549
0.0766483809198174
0.062127329683855384
0.04790362921299856
0.03411392338602837
0.020893794241752636
0.008375972395200536
-0.003311805819176293
-0.014049314858793785
-0.023726723967527858
-0.03224780517999374
-0.039533374313687385
-0.045524818581071026
-0.050187506046193396
-0.05351381770377608
-0.05552550132897429
-0.056275027215462785
-0.05584563892465032
-0.05434984480612139
-0.05192619246772031
-0.04873430759171818
-0.04494835268617037
-0.04074925437912481
-0.036316234699561044
-0.031818330134174094
-0.027406657281087418
-0.02320815655547595
-0.019321402474044635
-0.015814821953978705
-0.012727349502012385
-0.010071229819897274
-0.00783641980052401
-0.005995895315314027
-0.004511156168694411
-0.003337331814648957
-0.002427478185868456
-0.001735866491801108
-0.0012202481527383258
-0.0008432054293857772
-0.0005727553072300832
-0.00038236298765539597
-0.0002504034747300717
-0.00015867256067358588
-8.789838177362993e-05
-3.7440667242845894e-06
1.161414616180973e-07
1.5954646597391193e-05
6.60425398827202e-05
0.00018614179970247765
0.00043148240246403385
0.0008795243088456133
0.001630564743338165
0.0028056026465944984
0.004541359391815889
0.006982809875524931
0.010273964560180399
0.014547890288406277
0.019917032744267246
0.026464812294766618
0.034239244336522874
0.04324903926066088
0.053462322974686644
0.06480783554275155
0.07717824664444761
0.09043508847348046
0.10441474985506052
0.11893498843784228
0.13380148267163608
0.14881404160225437
0.16377219942380658
0.17848002805913193
0.192750094315792
0.20640656256858023
0.21928749758054075
0.2312464560410555
0.2421534725489668
0.2518955498456698
0.26037675797907167
0.2675180362573468
0.27325677819560695
0.27754626530087606
0.2803550019115979
0.28166599123913166
0.2814759826186606
0.2797947118074598
0.2766441498069804
0.27205777086174626
0.2660798466962606
0.25876477139399967
0.25017641933773027
0.2403875370997461
0.2294791689182612
0.21754011428004352
0.2046664150280574
0.19096086821216496
0.1765325594806494
0.16149641003487472
0.14597272788394355
0.13008675117176471
0.11396816753983838
0.09775058870705594
0.08157095365540071
0.06556882713532086
0.04988555303145468
0.03466321519970979
0.0200433528866469
0.006165375449290704
-0.006835376057150962
-0.018829962330766684
-0.029698595605559798
-0.039333794452171916
-0.04764388694118958
-0.05455674853500578
-0.06002359601691515
-0.06402259196902224
-0.06656195475358954
-0.0676822275296008
-0.06745734804419055
-0.06599418911871034
-0.0634303151130677
-0.05992982432757788
-0.05567731659084894
-0.050870226311595886
-0.045709972362034126
-0.040392567539273234
-0.03509946709224584
-0.029989483681050633
-0.025192530187231645
-0.020805765751606965
-0.01689243366303293
-0.013483337893015916
-0.010580571955519145
-0.008162855457994271
-0.006191699756920697
-0.00461763275792154
-0.0033858462990857246
-0.002440841392387767
-0.0017298784250497608
-0.0012052386088368715
-0.0008254330650105193
-0.000555528357310744
-0.00036661791711155615
-0.0002338422239467554
-0.0001299836678902363
-5.5114652595525255e-06
2.251524196793742e-07
2.8135473317308782e-05
0.0001120689021516002
0.00030556341853767144
0.0006876983436924952
0.0013647388839795685
0.002468619691183796
0.00415187162877321
0.006579311365695017
0.009917346835872946
0.014322111690277887
0.019927774431088473
0.026836274372828307
0.03510946349537924
0.04476425348585005
0.05577095944256128
0.06805466346449844
0.0814991390725594
0.09595270303037261
0.11123529451752938
0.12714610644657062
0.1434711846405906
0.1599905397673024
0.17648445905040105
0.19273884008007555
0.20854948444717894
0.2237253777860912
0.23809104376323945
0.2514880949589037
0.26377611800952994
0.27483302922214653
0.28455502545287736
0.2928562379554487
0.2996681777415522
0.30493904227490587
0.30863293659745117
0.31072904802325974
0.3112208025161531
0.31011502259063356
0.30743110062652934
0.3032001973621477
0.2974644725262365
0.29027635263892787
0.281697839592653
0.2717998624434061
0.2606616737140922
0.24837029032047117
0.2350199779163403
0.2207117759923278
0.20555305944056548
0.1896571304985921
0.17314283297008462
0.15613417831044404
0.13875997044067956
0.12115341285169928
0.10345167750049104
0.085795410017797
0.06832813977047587
0.051195556461987896
0.03454460762609789
0.018522364418090676
0.0032745979216528974
-0.011055993252195034
-0.0243319584801914
-0.036423714253665994
-0.04721262168757624
-0.05659449763880852
-0.06448348081983665
-0.07081610801035211
-0.07555538159853147
-0.07869453635137456
-0.08026015157762746
-0.08031421761898264
-0.07895476586841352
-0.07631472004164619
-0.0725587293427222
-0.06787790072207354
-0.06248254834833885
-0.056593305088454116
-0.05043116566887446
-0.04420721991964929
-0.038112950314443984