# vtk DataFile Version 4.1 
COMMENT
ASCII
DATASET STRUCTURED_POINTS 
DIMENSIONS 100 100 1 
ORIGIN 0 0 0
SPACING 0.12693303650867893 0.12693303650867893 0 
POINT_DATA 10000
SCALARS U double 1
LOOKUP_TABLE default
0.0
0.0
0.0
0.0
0.0
0.0
0.0
0.0
0.0
0.0
0.0
0.0
0.0
0.0
0.0
0.0
0.0
0.0
0.0
0.0
0.0
0.0
0.0
0.0
0.0
0.0
0.0
0.0
0.0
0.0
0.0
0.0
0.0
0.0
0.0
0.0
0.0
0.0
0.0
0.0
0.0
0.0
0.0
0.0
0.0
0.0
0.0
0.0
0.0
0.0
0.0
0.0
0.0
0.0
0.0
0.0
0.0
0.0
0.0
0.0
0.0
0.0
0.0
0.0
0.0
0.0
0.0
0.0
0.0
0.0
0.0
0.0
0.0
0.0
0.0
0.0
0.0
0.0
0.0
0.0
0.0
0.0
0.0
0.0
0.0
0.0
0.0
0.0
0.0
0.0
0.0
0.0
0.0
0.0
0.0
0.0
0.0
0.0
0.0
0.0
-3.1358759379538715e-13
1.53810122824281e-10
1.728697332368181e-09
9.924485519833866e-09
4.087985460355428e-08
1.363346640581557e-07
3.9080225496493353e-07
9.971472753764947e-07
2.3167969975104212e-06
4.980030464706128e-06
1.0019626785629261e-05
1.903758285148116e-05
3.439989062737202e-05
5.944903070457631e-05
9.871862915764406e-05
0.00015813045325554102
0.0002451513343049357
0.0003688872459053798
0.0005400938767732169
0.0007710875225729261
0.0010755465637743995
0.0014682015299495577
0.0019644199650100153
0.0025797001675331556
0.0033290946359665727
0.004226589122324274
0.005284466236017661
0.006512683427129504
0.00791829402333683
0.009504937084568982
0.011272417585564017
0.013216393312177745
0.015328179340980541
0.01759467549957028
0.01999841713761308
0.022517745141410136
0.02512708756233606
0.027797342570164002
0.030496350670695622
0.03318944316106556
0.0358400535053101
0.03841037853722924
0.040862076963899784
0.0431569933788088
0.04525789673795072
0.047129222866015535
0.04873781093205459
0.05005362388814199
0.05105044256291657
0.05170652244861028
0.05200520126084705
0.05193544416668255
0.05149231227290982
0.05067733865095142
0.04949879493065705
0.04797183036137633
0.04611846420601304
0.04396741138912832
0.04155372055419892
0.03891820347074816
0.0361066359369788
0.03316871446293337
0.030156762198064214
0.027124194047407697
0.024123776225184093
0.02120574915431101
0.01841592095327515
0.015793874319454185
0.013371452042580504
0.01117168487912362
0.00920829277055696
0.007485826504230744
0.006000431639560228
0.004741128081125521
0.003691428845116554
0.0028310883183611415
0.002137781031200701
0.001588560341699669
0.0011610148480031696
0.0008341069934874972
0.0005887257607905387
0.00040800651830258736
0.00027747014684173065
0.0001850216277569026
0.00012083671983755414
7.716058645777825e-05
4.8044066040952156e-05
2.9047119058386978e-05
1.6939773917770152e-05
9.426225530485046e-06
4.908671532248752e-06
2.297191864909263e-06
8.636689255101542e-07
1.3304687427282307e-07
-1.9603592415039127e-07
-3.082908363885267e-07
-3.117131693868921e-07
-2.6318245816566744e-07
-1.776110583727784e-07
-7.748625938766566e-09
-6.375330309345657e-13
5.307993666717621e-10
4.801877517757444e-09
2.4272862129723788e-08
9.099929184892731e-08
2.809978333442355e-07
7.536680137701487e-07
1.8121340220454051e-06
3.987996614893891e-06
8.151267136827663e-06
1.564236419152593e-05
2.8418473676997255e-05
4.920203378570176e-05
8.161544265917296e-05
0.00013028406529665376
0.00020088977574508348
0.00030015980331043476
0.00043578036306250235
0.0006162308954388256
0.0008505419212985799
0.0011479866317859655
0.00151772251065729
0.001968403832046965
0.0025077883462753673
0.003142361710184644
0.003877001367175658
0.004714697995302739
0.005656347832216388
0.0067006237345096364
0.007843927306270985
0.009080419333052592
0.01040212146201513
0.011799078819269601
0.013259571157895948
0.014770359171062427
0.01631695267588033
0.017883888302451644
0.019455005901637085
0.02101371489830316
0.022543244059566002
0.024026870440244024
0.02544812546297752
0.026790978074782684
0.02803999661316905
0.02918049235786526
0.030198648703934253
0.031081640449756268
0.031817747843686454
0.03239646978589376
0.0328086399679957
0.03304654881534187
0.03310407298130698
0.03297681298619849
0.03266223859382686
0.03215984087992258
0.0314712897988477
0.030600596333778277
0.029554278615093764
0.028341530851309336
0.02697439123387041
0.02546789866458544
0.023840217129205126
0.022112691012418292
0.020309777080374864
0.01845878452700436
0.016589351063189504
0.014732598707988757
0.012919953121916279
0.01118167379034354
0.009545218586632915
0.008033635731545318
0.0066642151015408
0.005447619361034922
0.004387646722088895
0.0034816633258831905
0.0027216138797854224
0.0020954121178506043
0.0015884598368112444
0.0011850578793833287
0.0008695435839029835
0.0006270870646351346
0.00044416781331181176
0.0003088074209949343
0.00021064614271520577
0.00014093112528072328
9.245247683226977e-05
5.943831818385304e-05
3.741029419930366e-05
2.300476314487413e-05
1.3773774997668837e-05
7.985797492066758e-06
4.445119259405867e-06
2.342099340411656e-06
1.1378196024174834e-06
4.799072433411624e-07
1.4302783997571144e-07
-1.2514074793093405e-08
-6.868612238090348e-08
-6.551098946190275e-08
-3.0309099120432338e-09
-6.666923968942519e-13
1.7113275330049287e-09
1.3615722909447645e-08
6.361276534985249e-08
2.2521780008680744e-07
6.648262773734262e-07
1.7183173760566058e-06
4.004397457397163e-06
8.57929268307982e-06
1.713267237151567e-05
3.2218462535616716e-05
5.750733246495241e-05
9.804119335229029e-05
0.00016046515590269623
0.0002532099798310438
0.00038659866518786273
0.0005728545657542632
0.0008259948593544793
0.00116160161637069
0.0015964720581937608
0.0021481588212291735
0.0028344191677689237
0.003672598363712484
0.004678976419989837
0.005868108925260897
0.007252191917629493
0.008840478005101429
0.010638766738125867
0.012648987109456972
0.01486888454018991
0.017291819273648625
0.019906678109651122
0.022697897126979914
0.02564558960754854
0.02872577084011954
0.03191066981459079
0.03516911693328758
0.03846699664094912
0.041767754169682425
0.04503294626434189
0.04822282665819137
0.05129695807989398
0.054214843575670364
0.05693657082264218
0.059423463799612566
0.06163873658653217
0.06354814410546657
0.06512062421946731
0.06632892470187235
0.06715020711987656
0.06756661761323682
0.0675658119178895
0.06714141890898916
0.06629342369401957
0.06502844835654122
0.0633599065562939
0.06130800826274299
0.058899593938259324
0.05616778427930193
0.053151442310471655
0.04989445822632622
0.04644488146210808
0.042853935294539805
0.0391749525927704
0.03546226407633736
0.03177005275199733
0.028151165186510504
0.024655852064120187
0.021330409803489107
0.018215722117847496
0.01534575682611827
0.012746147236611001
0.010433054402572306
0.008412535949893407
0.006680614778193155
0.0052241415037795474
0.004022398448021398
0.003049242146172799
0.0022754742181838165
0.0016711023811457923
0.0012072114987150796
0.0008572847570241088
0.0005979530903543091
0.0004092619812525299
0.0002746013120014542
0.00018044415840084242
0.0001160033347163102
7.286705020184776e-05
4.463849446670641e-05
2.658682599939637e-05
1.531515302241445e-05
8.455286783190902e-06
4.401218173701321e-06
2.0903067289432444e-06
8.34610195711226e-07
1.9811686221135026e-07
-8.827861175460458e-08
-1.821069037744705e-07
-1.5817282564345286e-07
-6.93285654305202e-09
2.062581345208284e-12
4.980941710976536e-09
3.552073622158862e-08
1.5400784432799366e-07
5.14367720450733e-07
1.4461121255919647e-06
3.582169005129888e-06
8.036368560354584e-06
1.6630107364301157e-05
3.215926972625364e-05
5.868320448004042e-05
0.00010180906795628729
0.0001689388190109383
0.0002694439341275666
0.0004147352320810475
0.0006182020295243383
0.0008950054156452936
0.0012617233751734287
0.0017358591189919172
0.002335236585445441
0.003077317178165209
0.003978478370260048
0.005053297330892368
0.006313881261093264
0.007769281167289374
0.009425018191196765
0.011282742367965382
0.01334003384173939
0.01559034707200638
0.018023090172729475
0.02062382476496618
0.023374566877342767
0.026254166562071312
0.029238742892117094
0.032302151623177525
0.035416464720219046
0.038552443809581054
0.041679993078528564
0.044768580893731987
0.047787623188954034
0.05070682527920353
0.053496482050630005
0.05612773936088908
0.05857282191354915
0.06080523482165877
0.0627999475456017
0.06453356987794677
0.06598453014300519
0.06713326574985526
0.06796243562147847
0.06845716271657266
0.06860531272071052
0.06839781183581961
0.06782900226957438
0.06689702841309622
0.06560423985757072
0.06395758969932049
0.06196899881292606
0.05965565022874366
0.05704017414027161
0.054150685159168425
0.05102064043673762
0.04768850001301718
0.04419718702344792
0.0405933608597166
0.03692652560819999
0.03324799473925043
0.02960972073970593
0.026062981056441833
0.022656901398453656
0.019436808679335858
0.01644244879659281
0.01370617702719402
0.011251312545114382
0.009090911220363545
0.0072272176153933745
0.005651986436611811
0.004347720908622622
0.0032896959958830857
0.002448472929281626
0.0017925210974468926
0.0012905728492578605
0.0009134384475245281
0.0006351622581344244
0.00043355322155819967
0.0002902278439768667
0.00019034294825314845
0.00012217687645366815
7.666819677243998e-05
4.696885180879524e-05
2.8032468820183062e-05
1.6242370897537636e-05
9.08144915552899e-06
4.848197088307202e-06
2.4234377233657303e-06
1.0890323137385385e-06
3.951129748144775e-07
6.904810145170182e-08
-4.1158961838632355e-08
-1.9417691612069628e-09
1.6159212771327235e-11
1.336295971237588e-08
8.701918525480824e-08
3.5356714100557174e-07
1.1214596777397513e-06
3.0190485375760116e-06
7.2017755304536795e-06
1.5624633713507503e-05
3.137147848957698e-05
5.902079571279176e-05
0.00010501627622540273
0.00017800224257143103
0.00028908043975044444
0.0004519469277724023
0.0006828757630912207
0.0010005288006434852
0.0014255865080142756
0.0019802109949273445
0.002687367382285276
0.003570041394912956
0.004650398500432612
0.005948932580723643
0.007483650232708967
0.00926933110889004
0.01131689632437601
0.013632907109438052
0.016219205757155523
0.019072701497381928
0.02218529594291453
0.025543936625724177
0.029130783015684454
0.03292346720704442
0.03689543092007257
0.04101632125162539
0.04525242933838881
0.0495671584028902
0.053921510214137235
0.05827458155569552
0.06258406466847469
0.06680674770446116
0.07089901292889841
0.07481733172336683
0.07851875638194306
0.08196140928508881
0.08510497031505389
0.08791116337426975
0.09034424260873694
0.09237147843585151
0.09396364273342213
0.09509549155631579
0.09574624249196109
0.09590004221852172
0.09554641795079334
0.09468070419576638
0.09330443352840675
0.0914256768819268
0.08905931512459045
0.08622721961314768
0.08295831539850934
0.07928849766181444
0.07526037111718493
0.0709227852252162
0.06633014671291486
0.061541505783161934
0.05661943234346627
0.051628719870522456
0.046634971144220785
0.041703125425841536
0.03689597659239243
0.03227270807707376
0.027887442890211226
0.023787791490384205
0.020013393138130785
0.016594495281294426
0.01355069171196455
0.010890016697953175
0.008608631395551975
0.00669130801371554
0.005112806223478808
0.003840067279209897
0.0028349742774660337
0.0020573013164823365
0.0014674438437770308
0.001028596313174079
0.0007081923565808344
0.00047859358120201114
0.0003171517270533085
0.00020584189794894023
0.00013066849305984617
8.100138616379771e-05
4.8938623978573216e-05
2.873892632347851e-05
1.6334539708777195e-05
8.92147342098806e-06
4.621877341997388e-06
2.2142382801862827e-06
9.269226044662471e-07
2.890973603585308e-07
3.029319999746803e-08
1.2607603167871472e-09
6.664284397932104e-11
3.338669710941717e-08
2.0100792085798482e-07
7.702656852148373e-07
2.32927847749423e-06
6.019649657858846e-06
1.385167968922755e-05
2.9093897857359652e-05
5.671293754264059e-05
0.00010382447800086254
0.00018010434874003568
0.0002981035745618385
0.0004734136359357072
0.0007246385894713312
0.0010731475761528659
0.0015426021922154026
0.002158275198217956
0.002946197101692643
0.0039321827935322575
0.005140800032961352
0.0065943445420028265
0.008311883113317922
0.010308417529035621
0.012594209779698396
0.015174294790515004
0.018048192260730046
0.02120981569060839
0.024647565223966397
0.0283445821773722
0.03227913728144241
0.036425121629678064
0.04075260879132194
0.045228458033619905
0.04981693159556292
0.05448030294763277
0.05917943750171767
0.06387433192371285
0.0685246027604218
0.07308991932307152
0.07753037955171733
0.08180683086185045
0.08588114073812883
0.08971642411302103
0.09327723638907065
0.0965297423739288
0.09944187243008139
0.10198347781087315
0.10412649744984387
0.10584514834900179
0.10711615109692721
0.10791900082945895
0.10823629198580398
0.10805410235478927
0.10736243799101776
0.10615573546977165
0.10443341155159125
0.10220044263895109
0.09946794757017173
0.09625373768410075
0.09258278843149402
0.08848757832527133
0.08400823551501252
0.07919243205661743
0.07409497347040334
0.06877704821742338
0.06330512825159365
0.05774954490438321
0.05218279782148666
0.04667768005263092
0.04130531184085198
0.03613316590198295
0.03122314280520982
0.026629729804796318
0.02239826789184193
0.018563373660344266
0.015147615035785466
0.012160604500639096
0.009598716617663457
0.007445623052584088
0.005673748781111687
0.004246598528448232
0.0031217245256880775
0.002253963788724751
0.0015985161643552275
0.0011134842195399525
0.0007616344422872285
0.0005113175630449086
0.0003366468533017295
0.00021713455734765914
0.00013701430399305602
8.444534964416355e-05
5.073218552022724e-05
2.9629574758568935e-05
1.675654278781685e-05
9.117607738624524e-06
4.720486279679851e-06
2.2785469962202473e-06
9.866382991203802e-07
3.520420771155855e-07
1.5154971088100257e-08
2.1726276703083348e-10
7.830149436388502e-08
4.399796429881822e-07
1.598690432202991e-06
4.625743712373687e-06
1.1506888917204342e-05
2.5596342370605696e-05
5.214207525691778e-05
9.883602004734916e-05
0.00017632695046826345
0.00029862595574425095
0.0004833368487815462
0.0007516566886064826
0.0011281130347080494
0.0016400312412574016
0.0023167529396819686
0.0031886518192772457
0.004286011653267047
0.005637842234192795
0.007270710886995761
0.009207661221905887
0.011467278450871869
0.014062944161238622
0.017002305299668907
0.020286964435053016
0.023912382849914524
0.027867975782758306
0.03213737074215505
0.03669879524757074
0.041525559231979814
0.04658659901874522
0.051847053490292144
0.05726884802229781
0.06281126726544511
0.06843150334722173
0.07408517112017814
0.07972678643265846
0.08531020690961674
0.09078903737963488
0.09611700392412904
0.10124830166197527
0.10613792195045177
0.11074196482202057
0.11501794231974229
0.11892507805906714
0.12242460792482424
0.12548008637762803
0.12805770243341305
0.13012660900266973
0.13165926890852628
0.1326318204854222
0.1330244650936897
0.13282187802928475
0.13201364298036525
0.13059470816610488
0.1285658593488046
0.12593420080140696
0.1227136298463084
0.11892528367455009
0.11459792893313178
0.1097682555098027
0.10448102705089128
0.09878903369811448
0.09275278970692266
0.08643992283203321
0.07992421619208612
0.07328428789953276
0.0666019274776987
0.059960145804528575
0.05344102866417608
0.04712350369959664
0.041081130406594224
0.035380003690695216
0.030076833396682975
0.025217241729397606
0.020834323605141886
0.016947547447950344
0.013562124233891052
0.010669012592282874
0.008245723371034826
0.006258015070428567
0.0046624349172331055
0.0034094927913715578
0.002447110672764071
0.0017239209571867798
0.0011920203181831923
0.0008089119730256787
0.0005385458051274782
0.00035153662654388985
0.00022475928070330855
0.0001405643856993891
8.583783389455844e-05
5.106702141270001e-05
2.9507382001024417e-05
1.648603598742586e-05
8.843987280864771e-06
4.5019966220433055e-06
2.128895392257381e-06
8.744225323610629e-07
3.778797386007525e-08
6.14809807034165e-10
1.734234343487503e-07
9.161342376326353e-07
3.170225972597314e-06
8.803213968489858e-06
2.112541019508325e-05
4.550533278709907e-05
9.002977929328848e-05
0.00016613287298047877
0.00028910645900571616
0.0004784056616772381
0.000757678727578979
0.0011544771940257997
0.0016996365124985983
0.002426353014658107
0.00336901511916179
0.004561870616502651
0.006037625135243741
0.007826068807912711
0.00995281977343347
0.01243825680258184
0.015296692026455167
0.018535811607517102
0.022156389983460454
0.026152264140360138
0.030510539545686034
0.035211989430475744
0.040231603936499
0.04553924464765714
0.0511003623341041
0.05687674037762315
0.06282723237739435
0.0689084690446187
0.07507551604905349
0.08128247053864532
0.08748298935212456
0.09363074637010073
0.09967982000225983
0.1055850145621683
0.11130212135557543
0.11678812683838377
0.12200137631936779
0.12690170250744134
0.1314505288279039
0.1356109579238368
0.13934785615682352
0.14262794523624062
0.1454199123211634
0.14769455000774528
0.14942493746301366
0.15058667348885502
0.15115817136288148
0.15112102374258624
0.1504604435481509
0.14916578335523129
0.14723113123106818
0.14465597496007787
0.14144591911329885
0.1376134304104381
0.13317857646320033
0.1281697116879988
0.12262405271778615
0.11658807531533438
0.11011765750881482
0.10327789198810744
0.09614249766386232
0.08879277838872844
0.08131610749129868
0.0738039585790169
0.0663495508783345
0.05904522241085625
0.051979676063634524
0.045235253658064495
0.038885379434041106
0.03299228409614113
0.02760508881396364
0.022758312247569377
0.018470872312357188
0.014745682344777213
0.011569966525962939
0.008916411554962051
0.006745207290910356
0.005006907151257906
0.003645886643769402
0.002604043573239427
0.001824315783186553
0.0012536208203212929
0.0008449415750041902
0.0005584554676425574
0.0003617788259512317
0.0002295253850642836
0.00014243382243322734
8.630698006314186e-05
5.0948190762785045e-05
2.9207675289231858e-05
1.6188080831185913e-05
8.613985523235946e-06
4.341454953246009e-06
1.937463319754059e-06
8.351172659364374e-08
1.5700648085641153e-09
3.6449820521850995e-07
1.820808931010878e-06
6.022605099649822e-06
1.6091486802142314e-05
3.732570870233671e-05
7.798198306317757e-05
0.00015004115853144758
0.00026984986411837626
0.00045852949095772776
0.0007420615606419172
0.0011509918495414574
0.001719738786723147
0.0024855372215078194
0.003487089353140493
0.004763024620620573
0.006350286249117172
0.008282563180470954
0.010588873882262456
0.013292386326559377
0.016409530403556784
0.019949429384896748
0.023913649392755275
0.028296242807224627
0.03308404468123525
0.03825717099500715
0.04378966357491162
0.049650227733746825
0.055803013849950234
0.062208401802001136
0.06882375612347118
0.07560412887431288
0.08250289573815206
0.08947231823489529
0.09646403091392215
0.10342945689868631
0.11032015826931817
0.11708812967117879
0.12368604444917668
0.1300674627693405
0.13618701082982276
0.14200053958719774
0.1474652706020415
0.15253993577746577
0.1571849170298296
0.1613623913670139
0.16503648650440975
0.16817345204519993
0.17074185138689718
0.1727127798585565
0.17406011507521219
0.1747608060063433
0.17479520762848233
0.17414746804179965
0.17280597428521471
0.17076386143395425
0.16801958651740995
0.1645775639609389
0.16044885229571626
0.1556518725950912
0.15021312752449073
0.14416787644383625
0.13756070760113814
0.1304459346919337
0.12288773429022808
0.11495993598380316
0.10674538201487938
0.09833479111124592
0.08982509382832074
0.08131725307569401
0.07291363852209092
0.06471507812737853
0.05681775266034023
0.049310119522280725
0.042270046052931144
0.03576230425352097
0.029836541595537832
0.024525812788197255
0.01984574646823857
0.015794427242879366
0.012353080696261185
0.009487631377039736
0.007151140445087189
0.005287018161119539
0.0038327696406111928
0.0027239126684345293
0.0018976488813744652
0.0012959016320521798
0.0008674518277029739
0.0005690732363934589
0.0003657412959563862
0.0002301185427467497
0.00014158002390663823
8.503412163114088e-05
4.9738915389209505e-05
2.823994461952175e-05
1.5484834297977715e-05
8.107871738112338e-06
3.775418731117287e-06
1.6232597369171495e-07
3.6947130672028422e-09
7.299297831016756e-07
3.464427410746569e-06
1.0987249741260009e-05
2.831012462555666e-05
6.358622668506412e-05
0.00012903204146047062
0.0002417280476132577
0.0004241617530581557
0.0007043957552210077
0.001115783784838857
0.001696211670408763
0.0024868980063141952
0.00353084119595079
0.004871037655713664
0.006548615760370499
0.008601030670020915
0.011060448785395274
0.0139524217452592
0.01729491417406719
0.021097712321791265
0.025362206924537965
0.03008151627826304
0.03524089634993702
0.0408183740440217
0.04678553670409534
0.05310841406867663
0.05974839640700699
0.06666314262193698
0.07380744313052376
0.0811340130731516
0.08859420100404519
0.09613860619565438
0.1037176038732336
0.11128178214340198
0.11878229730304368
0.12617115590445369
0.13340143272424
0.14042743393510693
0.14720481456725198
0.15369065897207662
0.15984353261220402
0.16562351319440918
0.17099220898951348
0.17591277216575016
0.18034991509575815
0.1842699378615128
0.18764077554391645
0.19043207430274975
0.1926153056764819
0.19416392889433104
0.19505361120853773
0.1952625162068388
0.19477166959700698
0.1935654108605343
0.19163193718884475
0.18896394292731697
0.18555935300750617
0.18142214219237407
0.17656322309787142
0.17100137473844848
0.1647641698896482
0.15788884439193077
0.1504230357299158
0.14242530362801809
0.13396533464267787
0.12512372919580894
0.11599127698302741
0.10666764863976995
0.09725946981414031
0.08787779719536402
0.07863507919706994
0.06964174721637754
0.06100263438865427
0.05281344617189572
0.04515750495141635
0.03810296194487286
0.03170062559504743
0.025982512278090796
0.020961194976203305
0.01663001005536193
0.012964169372794047
0.00992279408218603
0.007451820311592981
0.005487623637431599
0.003961089134183302
0.0028017539294508077
0.0019416089360621172
0.0013181891558143159
0.0008767032118810688
0.0005711207760814589
0.00036430482120897357
0.00022740128527795186
0.00013875764281287513
8.263404280379203e-05
4.791486045277341e-05
2.6948770004472276e-05
1.4548206376809485e-05
6.989649952640808e-06
2.994697312899485e-07
8.116707666711217e-09
1.3975088521727976e-06
6.327077024426e-06
1.9291190352507237e-05
4.803050756489398e-05
0.00010462424134054325
0.00020648167775197559
0.00037705877318317297
0.0006461486745539426
0.0010496425429387985
0.001628723894241955
0.0024285328696771755
0.0034964031963199875
0.004879823473857122
0.006624299626030271
0.008771295635899724
0.011356408144390135
0.014407893225742315
0.01794561810229569
0.021980463985464816
0.02651416457673962
0.0315395320377134
0.037041000365475384
0.04299540516728615
0.049372917512032474
0.05613805570484686
0.06325071002227671
0.07066712928235125
0.07834083259199404
0.08622342320058467
0.09426529311168791
0.10241621646612663
0.11062583659774669
0.11884405624400347
0.12702134300138102
0.13510896316284898
0.14305915698253932
0.15082526756660733
0.15836183431244277
0.1656246603640512
0.17257086210423073
0.17915890738956616
0.1853486481307029
0.1911013519722626
0.1963797372560138
0.20114801516631423
0.20537194296002814
0.20901889247178024
0.21205793865222347
0.21445997372567632
0.21619785361062485
0.21724658447041822
0.2175835585477119
0.21718884962197435
0.21604557927785184
0.214140365360665
0.21146386311170423
0.208011407029488
0.20378375695584847
0.1987879447113408
0.1930382073794456
0.18655697986675746
0.1793759028325396
0.1715367832294778
0.1630924250078732
0.15410722936583882
0.1446574505591255
0.13483098876664631
0.12472661018698622
0.11445251015500968
0.10412417942712998
0.09386159528180563
0.08378583157661006
0.07401525473387044
0.06466153240414392
0.05582571576834202
0.04759465790312649
0.04003800088551479
0.03320591380656426
0.027127707936484384
0.02181140697732382
0.017244313439862085
0.013394578619175845
0.010213737791945322
0.007640100968173638
0.005602792930985219
0.004026132961840712
0.0028339670092216132
0.001953546182548991
0.0013186033666716087
0.0008714074334959556
0.0005637409541841587
0.0003569091764872203
0.000221006214205189
0.00013371725632107425
7.892289876602543e-05
4.5305816381059075e-05
2.503561180407776e-05
1.2297993542605554e-05
5.249666479263488e-07
1.679586040970233e-08
2.565725064349615e-06
1.111751016119836e-05
3.2664218578654245e-05
7.872349330035449e-05
0.0001665452916919022
0.0003200484648075658
0.0005702843206794643
0.0009552869727554581
0.0015192517889025662
0.002311075356455296
0.0033823753277641335
0.004785171795489777
0.006569444850710504
0.008780783819661018
0.011458316413752669
0.014633058773984787
0.018326770020318024
0.022551336961374
0.027308663733865195
0.032591002290013694
0.03838163498415497
0.04465580974445403
0.05138182941692419
0.05852220681426047
0.06603481247754121
0.07387396009191478
0.08199139239170349
0.0903371464752351
0.09886029068147015
0.1075095351449847
0.11623372490966954
0.12498222843027113
0.13370523598153447
0.14235398253642786
0.15088090864456272
0.15923977123230532
0.16738571444179912
0.17527530890029253
0.1828665663354247
0.19011893531439852
0.19699328311002198
0.20345186826606668
0.20945830830468926
0.21497754713532413
0.2199758270332391
0.2244206705100322
0.2282808779628284
0.2315265476414963
0.23412912520236093
0.23606149091607848
0.23729809345560915
0.23781514007842203
0.2375908538697298
0.23660580940720088
0.23484335853777918
0.23229015761760144
0.22893680613655862
0.224778603600857
0.21981642627354395
0.21405771725821846
0.20751757193984763
0.20021988571156596
0.19219851241431193
0.18349836086748814
0.17417633502723454
0.16430200345991766
0.15395786978524478
0.1432391121425688
0.13225267136218471
0.12111559830023577
0.10995262232365567
0.09889297297226116
0.08806656827202189
0.0775997642537228
0.06761092650228553
0.05820612263902518
0.049475236629109944
0.04148877258839678
0.0342955571626133
0.027921480532181964
0.022369350122227846
0.017619873782555667
0.013633735960901365
0.01035467020260841
0.007713355354122875
0.005631873529674617
0.004028382682013857
0.0028216033894180198
0.0019347247718770005
0.0012984101871276674
0.0008527190110720697
0.0005479254607781086
0.0003443688050112176
0.00021157626883189413
0.00012694044091470863
7.419851603177266e-05
4.181626111198737e-05
2.0905761115771686e-05
8.887812503081766e-07
3.295459440905524e-08
4.528873418589574e-06
1.883558345568428e-05
5.3436921275158545e-05
0.00012486394572271058
0.00025688725992784934
0.00048121715455887865
0.0008375050490580594
0.0013725540495619435
0.0021387615513461084
0.0031919257392255926
0.00458863062943711
0.006383468741512443
0.008626363502307402
0.011360220116698181
0.014619074509302278
0.018426838067957023
0.022796663811477637
0.0277308971660345
0.03322152800136135
0.03925103240353348
0.04579348210506436
0.052815803590568124
0.0602790835149638
0.06813983784306155
0.0763511851255875
0.0848638865017749
0.09362723429998467
0.10258978639231174
0.11169995443895492
0.12090646110195145
0.13015868483866266
0.13940691178784542
0.14860251333516883
0.1576980659087672
0.16664742699274937
0.17540577868989785
0.18392964770196646
0.19217690849210148
0.20010677471910968
0.2076797827916711
0.21485777054583083
0.2216038535455932
0.22788240128500514
0.23365901557854096
0.23890051362621004
0.24357491860791966
0.24765146119182876
0.25110059604085905
0.2538940382865121
0.25600482602792474
0.25740741621724184
0.2580778227994404
0.25799380763736035
0.2571351364637101
0.2554839136718578
0.25302501089073814
0.24974660456536787
0.24564083662959157
0.24070460913901326
0.23494051768445579
0.22835791880170253
0.22097411286195903
0.21281560584992676
0.20391939137760354
0.19433416944065743
0.18412139305432645
0.17335601143906182
0.16212676340335347
0.1505358722665216
0.13869800929868834
0.1267384301636039
0.1147902493256545
0.10299089756343457
0.09147789914158545
0.08038419463215143
0.06983330723201955
0.05993469057259486
0.05077959623461195
0.04243776020852738
0.03495513908545109
0.028352843765662678
0.02262733490883656
0.017751867508120352
0.013679100449448846
0.010344714003943515
0.007671799225624474
0.0055757028142410705
0.003968945518492343
0.002765804903537138
0.0018861841206210177
0.0012584826681532528
0.0008213286475321777
0.0005241935684288692
0.00032705254948979116
0.00019934072642357402
0.00011845793747187001
6.790546057558659e-05
3.4434307195022345e-05
1.457654527302836e-06
6.162378135327381e-08
7.703982307194506e-06
3.0829933730537793e-05
8.460996937090282e-05
0.0001919571800958906
0.0003845086783849298
0.0007028586257967066
0.001195869531429376
0.0019190622097887526
0.0029322243297995425
0.0042964866443152465
0.006071177199497446
0.008310771816966087
0.011062219843581939
0.014362851255724096
0.018238981762747124
0.022705243014292307
0.027764588285942714
0.03340886803783147
0.03961983738135129
0.04637044740918932
0.05362628035460624
0.061347009062854375
0.06948778854836793
0.07800051648110418
0.08683492652724781
0.09593950116847623
0.10526220780929389
0.11475107353094498
0.12435462033617178
0.1340221851183912
0.1437041479915948
0.15335209010450274
0.16291889855370909
0.17235883222005885
0.18162755878012793
0.19068217009558333
0.1994811808030732
0.2079845132431368
0.2161534708256624
0.22395070143278428
0.23134015238906072
0.23828701876379466
0.24475768720392319
0.2507196780400245
0.2561415889983287
0.26099304444872395
0.2652446547081178
0.2688679905089026
0.27183557836320343
0.2741209232507454
0.275698565886247
0.2765441828340335
0.27663473896764573
0.2759487032149373
0.27446634011021087
0.27217009121851843
0.26904506169214504
0.26507962759113773
0.2602661784988829
0.2546020065825867
0.2480903466815376
0.24074156136707967
0.23257444952131437
0.2236176365841244
0.21391097970765124
0.20350689314396464
0.19247147104312573
0.1808852605705882
0.1688435231617404
0.15645582175759667
0.14384479260092795
0.13114400543075477
0.11849488606593615
0.10604276587737646
0.09393222344126985
0.0823019800034829
0.07127968553793042
0.06097697154368067
0.051485142148299474
0.042871827666013926
0.03517884454244195
0.02842140784480035
0.02258874175053103
0.01764603873112341
0.013537630848854223
0.010191153987311328
0.007522406951196526
0.005440538611484581
0.003853152559959599
0.002670918580837765
0.0018113367022474496
0.001201411715557068
0.0007791455320530574
0.0004939092729633086
0.0003058759708112855
0.0001847211427804788
0.00010758319526321578
5.523612070439023e-05
2.327597058661084e-06
1.1027991427597064e-07
1.2656259841952173e-05
4.883983664177819e-05
0.00012987217357733413
0.00028645372496712923
0.0005592843334452529