# vtk DataFile Version 4.1 
COMMENT
ASCII
DATASET STRUCTURED_POINTS 
DIMENSIONS 100 100 1 
ORIGIN 0 0 0
SPACING 0.12693303650867893 0.12693303650867893 0 
POINT_DATA 10000
SCALARS U double 1
LOOKUP_TABLE default
0.0
0.0
0.0
0.0
0.0
0.0
0.0
0.0
0.0
0.0
0.0
0.0
0.0
0.0
0.0
0.0
0.0
0.0
0.0
0.0
0.0
0.0
0.0
0.0
0.0
0.0
0.0
0.0
0.0
0.0
0.0
0.0
0.0
0.0
0.0
0.0
0.0
0.0
0.0
0.0
0.0
0.0
0.0
0.0
0.0
0.0
0.0
0.0
0.0
0.0
0.0
0.0
0.0
0.0
0.0
0.0
0.0
0.0
0.0
0.0
0.0
0.0
0.0
0.0
0.0
0.0
0.0
0.0
0.0
0.0
0.0
0.0
0.0
0.0
0.0
0.0
0.0
0.0
0.0
0.0
0.0
0.0
0.0
0.0
0.0
0.0
0.0
0.0
0.0
0.0
0.0
0.0
0.0
0.0
0.0
0.0
0.0
0.0
0.0
0.0
1.1128763383618979e-11
-5.4584954787263506e-09
-5.845946931100529e-08
-3.228597704540756e-07
-1.2842933491053117e-06
-4.152105050099846e-06
-1.1597606867872201e-05
-2.903962680129014e-05
-6.682054071908088e-05
-0.0001438226566540546
-0.00029334456610936285
-0.0005723189560896411
-0.0010750614918615565
-0.0019524931068837159
-0.0034369842325293826
-0.005871552418652502
-0.009740247322901309
-0.01569459367616349
-0.02456956878300582
-0.037382452860280704
-0.055309495250291836
-0.07963873080980241
-0.11170192680181348
-0.15279349482285146
-0.20408796671903728
-0.2665691521275804
-0.34098274301614717
-0.42782005244440874
-0.5273346813358065
-0.6395876199147114
-0.7645111247732171
-0.9019788407121867
-1.0518695777057208
-1.2141146800059397
-1.3887231959069481
-1.5757839138147698
-1.7754476405735329
-1.987896041231173
-2.2133045780170044
-2.451806680600139
-2.7034646817229184
-2.968250846099437
-3.2460395785514433
-3.5366100708199375
-3.8396575025614372
-4.1548104939964245
-4.481652618793425
-4.819746041782601
-5.168655333056145
-5.52796899403864
-5.897315265565335
-6.276367589955476
-6.664833768387901
-7.0624212259906765
-7.468768676254835
-7.883332146962665
-8.305211804429142
-8.732906565492943
-9.16398667399904
-9.594679622594688
-10.019371418640578
-10.43003542456595
-10.815622191165689
-11.161486810939133
-11.449002085626221
-11.655596130281445
-11.755524840790782
-11.721681859070292
-11.52859981115201
-11.156484869543648
-10.595707270000137
-9.850782616225112
-8.942704785421329
-7.908673943523501
-6.798821184314937
-5.670320690253177
-4.580035166983255
-3.5772813859054997
-2.6982621659293877
-1.963208639375548
-1.376506920551949
-0.9293245868024311
-0.6037457378992015
-0.37728325162199317
-0.22682965949367714
-0.13149622980223416
-0.07420738652875872
-0.04223693600816314
-0.02703651070679613
-0.023722693870537152
-0.03050093251281802
-0.04815800732019026
-0.07957505911815857
-0.1289872330780193
-0.20037972929644238
-0.2938244067247076
-0.397482608792507
-0.47110663228016864
-0.4140914228494014
-0.01806553921534088
2.3674497444274363e-11
-1.9701090327127798e-08
-1.7255047495933341e-07
-8.440258980831529e-07
-3.056642091261737e-06
-9.103869589634808e-06
-2.3537198279616753e-05
-5.4597767217265934e-05
-0.00011623803013498841
-0.0002310225514947885
-0.00043444827846438695
-0.0007815365205954536
-0.0013567811403241408
-0.0022884663129927895
-0.0037677512216731973
-0.006071615691086463
-0.009586855946051449
-0.014830208078983506
-0.02245803135420946
-0.03325858626283307
-0.04812140859610042
-0.06798176846735014
-0.09374322889255121
-0.1261867826799363
-0.16587949509773853
-0.21309763728244552
-0.26777812200106255
-0.3295076612420619
-0.39755236723403453
-0.4709230850878812
-0.5484653480239251
-0.6289589476977224
-0.7112114709332755
-0.7941326647468323
-0.876781290099215
-0.9583818993540751
-1.0383143589116166
-1.116082875071676
-1.1912732246853204
-1.2635068556673839
-1.332398951034551
-1.3975251023747424
-1.4583985715250742
-1.5144577628034483
-1.565061870860984
-1.6094919844565516
-1.6469553353022848
-1.676591732026104
-1.6974830215967522
-1.7086680217268255
-1.7091663703724211
-1.6980153252109824
-1.674324282152402
-1.6373528623985854
-1.5866189903080359
-1.5220418231928765
-1.4441197033953062
-1.3541365712090048
-1.2543844225766105
-1.148386366067277
-1.0411017436915389
-0.9390825849100339
-0.8505188908131522
-0.7850579829812867
-0.7532309102478908
-0.7653113771582495
-0.8295231219993868
-0.9497278655867993
-1.1230321931950429
-1.3380339889277644
-1.5745263038552313
-1.8052581904244218
-1.9998069477285654
-2.1298982791292937
-2.1748986271739708
-2.12597911271309
-1.987753737819641
-1.7769405845883737
-1.5185007850073715
-1.2404261568077661
-0.9686178902620441
-0.7230728493153753
-0.5160210358690981
-0.35199710265691897
-0.22932206320546136
-0.14224823876311538
-0.08307529638485098
-0.043777080669054634
-0.01695989710620398
0.0037946248004855194
0.024006955891928743
0.04854291328851132
0.08175533949055412
0.12724318503086446
0.18687268103780852
0.25846446122148037
0.33091817766920567
0.37406859033987394
0.31747208699288304
0.013392002031673931
2.6029756042432198e-11
-6.674437951858581e-08
-5.177378073128289e-07
-2.3504034648990745e-06
-8.057719451683978e-06
-2.295865314408253e-05
-5.713429003194001e-05
-0.00012803318499984286
-0.0002638804491896081
-0.0005082941998124995
-0.0009270347372216963
-0.0016185137751902224
-0.0027303124754555355
-0.00448405840217614
-0.007210093339699616
-0.011391088896552135
-0.017710217507234064
-0.027095340732174417
-0.04074717867646743
-0.060138087387889005
-0.08697016254279787
-0.12308736091056222
-0.1703454382790618
-0.23045379065576307
-0.30481204726133626
-0.3943688348782845
-0.49952877182414773
-0.6201262771376934
-0.7554727327078419
-0.9044697580898813
-1.065769173502786
-1.237952472510931
-1.4197008742842656
-1.6099312356501043
-1.8078817767549094
-2.013142309077015
-2.225633881253528
-2.445550413334967
-2.6732788470806277
-2.909314520258151
-3.1541856609597683
-3.4083963519215157
-3.6723923125691282
-3.9465493291581684
-4.2311806146027005
-4.526556960485497
-4.8329323218703735
-5.150567486475303
-5.479745504044066
-5.8207738436762195
-6.173968683441143
-6.5396155920454815
-6.917898711120887
-7.308789304184988
-7.71188609045166
-8.126203984790997
-8.549911816864984
-8.980019696595848
-9.412012887706073
-9.839428375592998
-10.25338588527988
-10.642128821119561
-10.990701678171552
-11.280966069523513
-11.492193565730869
-11.60242122773578
-11.590590556603063
-11.439240251687483
-11.137273587013242
-10.682187153019706
-10.08121476790937
-9.351108977989034
-8.516652544813127
-7.608306742740606
-6.659532158681555
-5.704230850115688
-4.774540038144274
-3.8989994592474324
-3.1010293682123544
-2.3977121260679843
-1.7989914919309307
-1.3074790502827358
-0.9190142106122703
-0.6239702793499937
-0.4091088784331483
-0.2596500874310642
-0.16120255006309717
-0.10128361035322306
-0.07030346247928088
-0.0620224555201758
-0.0735652415043942
-0.10506667078857952
-0.15893131902560978
-0.2385057387707807
-0.34563487255222486
-0.475927367908448
-0.6091957299944687
-0.6897591264548807
-0.586189899760801
-0.025119385532274174
-8.465340302574992e-11
-2.0450566025833912e-07
-1.4322255225237061e-06
-6.071542513544521e-06
-1.9738835720903562e-05
-5.377439491907683e-05
-0.00012850464159651893
-0.00027699256637143775
-0.0005489269925974804
-0.0010145699878940165
-0.0017694421038307049
-0.0029416416778142245
-0.004705026221491289
-0.007302265787382843
-0.01108117090336522
-0.016545014740357605
-0.024412693530611665
-0.0356782852555334
-0.05165360820069625
-0.07397406808830002
-0.10454957949368174
-0.14544976615512956
-0.19872534375889017
-0.26618300398626205
-0.3491452970540646
-0.4482357392783756
-0.5632295443099762
-0.6930010950450692
-0.835582281038806
-0.9883250771140016
-1.1481422478635348
-1.3117864376118966
-1.4761230573369892
-1.6383568235484927
-1.7961837214190557
-1.9478561356879183
-2.092164984353736
-2.2283555224617264
-2.356000973737043
-2.474859787556997
-2.584739010119777
-2.6853798389231716
-2.7763740337720995
-2.8571132812442714
-2.926768865995574
-2.9842962683705045
-3.0284583119149473
-3.0578610742699306
-3.070999149207444
-3.0663110945213106
-3.04225113864096
-2.9973872814332094
-2.9305363905757433
-2.8409431068330395
-2.7285037521005444
-2.5940333099268815
-2.439575383856877
-2.2687583546583103
-2.087195296136977
-1.902897282323142
-1.7266120791816073
-1.5719210760986906
-1.4548564275780844
-1.3927854705883578
-1.4023996298586532
-1.4968630155270517
-1.6824907514925298
-1.955644600740118
-2.300720082366887
-2.6900369849008894
-3.0860940693034364
-3.4460818730755935
-3.7279337051402455
-3.8967342257750808
-3.9301491511534814
-3.8217367622569633
-3.5814879949168765
-3.233573680591886
-2.8118844209138376
-2.3543812139121156
-1.8974391508724266
-1.4712414611595468
-1.0969214919857602
-0.7856697535638176
-0.5395609848592967
-0.3535328354981913
-0.21782829268631654
-0.12029351099861674
-0.048139415183334075
0.010957452407757142
0.06829946933178119
0.1338755807555474
0.2159615343069844
0.3201934625547927
0.4475801224161972
0.5904936509097487
0.7244081718963871
0.7899413984550815
0.6526048672619316
0.02764110683757923
-6.951060929217819e-10
-5.747440140913889e-07
-3.6980462293862363e-06
-1.478450424413735e-05
-4.594003689445037e-05
-0.00012058424076066422
-0.00027904637125699745
-0.0005842501138076343
-0.0011263221985738363
-0.002025273468610013
-0.0034321221212587068
-0.005530990737961019
-0.008547349630968534
-0.01276966726482695
-0.018591848974745168
-0.026580685756713004
-0.037565563441784224
-0.05273775551443209
-0.07373619766043574
-0.10268934872127414
-0.1421823037014974
-0.19512712102049826
-0.2645321434387807
-0.35318961185237246
-0.463324257570677
-0.5962620700483247
-0.7521825646982561
-0.9300072518176992
-1.1274533663282074
-1.3412507239995821
-1.567488431623136
-1.8020345976001946
-2.040961421134478
-2.2809117585593395
-2.5193594066486393
-2.7547390360819204
-2.9864469075207305
-3.2147346987612497
-3.4405322660908455
-3.6652396188908143
-3.8905246681927346
-4.1181538495800325
-4.3498706837621794
-4.587325766964196
-4.832052722806349
-5.085479014612503
-5.34895750943082
-5.6238029341847335
-5.911316063743859
-6.212778215217086
-6.529400888536043
-6.862220830769749
-7.211937538647979
-7.578694203436935
-7.96180105801388
-8.35939332594205
-8.7680121825395
-9.182108094118707
-9.593501698056029
-9.990899500948005
-10.35963725518327
-10.681883360833732
-10.937535729646717
-11.105947344953645
-11.168403312291902
-11.110982358084312
-10.927165696828698
-10.619437648323943
-10.199261710538195
-9.685226518712645
-9.09972500602466
-8.465046561893327
-7.800006138741379
-7.118081635564067
-6.427518738630622
-5.733180794560765
-5.039332390893913
-4.352270641899466
-3.681847287789781
-3.0413851082447803
-2.4460892646076333
-1.9105588668006899
-1.446246241923683
-1.059639734198961
-0.7516317471066728
-0.518124403381983
-0.3515733402305049
-0.2429740154068099
-0.18377320022117843
-0.1672939996593371
-0.18942017502431513
-0.24842740171932018
-0.34393115302666105
-0.4749022284525739
-0.6364813945482314
-0.814625313219785
-0.975769839095598
-1.0443038327343357
-0.8511229508623519
-0.036049760103302346
-2.9735922652392474e-09
-1.4894078462856894e-06
-8.906215214905561e-06
-3.3788011125777826e-05
-0.00010078474973617028
-0.0002558278463845997
-0.0005753889834485292
-0.0011748141699089636
-0.0022130168013869116
-0.0038910398792466857
-0.006443731837893678
-0.010127234897228232
-0.01520964337702937
-0.021976611049081794
-0.030765676920491404
-0.04204033559058547
-0.0565060091464507
-0.07525564197550486
-0.09991571452865036
-0.1327492970352181
-0.17666733524444564
-0.235107295286331
-0.3117607197551578
-0.4101646003948217
-0.5332078876980278
-0.6826338133540493
-0.8586317475108339
-1.0596037848992457
-1.2821618257592078
-1.5213672384731185
-1.7711779659769986
-2.025028730021162
-2.2764478557365764
-2.5196133304557353
-2.749769503621566
-2.9634581185537847
-3.1585544578537563
-3.334132734276378
-3.4902082061348585
-3.627413982420344
-3.7466686134105602
-3.8488793218362227
-3.934709386068056
-4.004421227688938
-4.057793059266805
-4.094099040834415
-4.112141260862208
-4.110324702231937
-4.086770419445907
-4.039464681926481
-3.966442581474847
-3.8660061213494266
-3.7369821609206686
-3.5790346826813386
-3.3930532578918116
-3.1816359931853864
-2.9496617306789368
-2.7048988311375455
-2.4585302395090793
-2.225400263128589
-2.023733229091874
-1.8740754114404095
-1.7973089772990998
-1.8117990001681883
-1.9300316443133259
-2.1553918861258716
-2.4798833415117794
-2.8835036110699996
-3.3356375955770377
-3.798319504974621
-4.230728470663015
-4.594007899628348
-4.855525686025329
-4.991973886145648
-4.991089164618612
-4.85208712213746
-4.585043618777136
-4.209436138649116
-3.7519761372646387
-3.2438314453756987
-2.717411266018839
-2.20303359622616
-1.725923319081537
-1.3040048636888353
-0.9468180102097025
-0.6556382905537428
-0.42461899830233496
-0.24259056729611964
-0.09511370190401867
0.033520548018270084
0.1584776948398292
0.29271913217314954
0.44535202068142654
0.6197888461068655
0.8113635601799367
1.0034273789826749
1.1589961356897618
1.1999005487284855
0.9533483950495448
0.04012080168456216
-9.921187826966644e-09
-3.5750152369387093e-06
-2.003224217549402e-05
-7.24413742709217e-05
-0.000208072708015086
-0.0005121333597399543
-0.0011226218445325026
-0.0022426141120635125
-0.004144963596162355
-0.007164388962828432
-0.01167419117194044
-0.01804992893605788
-0.026629852699654146
-0.03768992478755525
-0.05145667782530874
-0.06818025567969511
-0.08827986769331167
-0.1125542195604571
-0.14242363120269028
-0.18014556812643318
-0.2289302991191802
-0.29288651896525714
-0.3767519222730221
-0.4854080891317627
-0.6232329171260459
-0.7933928533849222
-0.9972066531449029
-1.2337121086302525
-1.4995350214494143
-1.7891025878800175
-2.0951753971542586
-2.4096103384175374
-2.7242256488196697
-3.031627654352384
-3.3258768643881926
-3.602911931642896
-3.8607018275996983
-4.099146675867265
-4.319785764441084
-4.52539169145006
-4.719531837283175
-4.906165826547824
-5.089325827105842
-5.272901160307797
-5.460524720334177
-5.6555400201444845
-5.86101695146405
-6.079782290336272
-6.3144355134021355
-6.56732688794854
-6.840477913440567
-7.135422007804426
-7.452939313375498
-7.792661405977533
-8.152537296775254
-8.528185172598294
-8.91220379147071
-9.29357890273109
-9.657384522497434
-9.985026809944564
-10.255274342693786
-10.446219217584803
-10.538093405308745
-10.516552327338307
-10.375731064349667
-10.120220952504203
-9.765226292057505
-9.334566250218968
-8.856778102215184
-8.360149992164084
-7.867852616600618
-7.394327110494065
-6.943737213754257
-6.510742453189835
-6.083278771665813
-5.646598924317864
-5.187610465242189
-4.698565159775907
-4.1793634819253835
-3.638082100440422
-3.0897395741363574
-2.5537038103941603
-2.0504275357993715
-1.5983034477461413
-1.2113293519050428
-0.8979961080474288
-0.6614431889976121
-0.5005792930753314
-0.41163596432879945
-0.38956307765273906
-0.4287841190467244
-0.5230579729385592
-0.6644601905781438
-0.8416807654356439
-1.0377364505756
-1.2264079502229377
-1.3643318470973194
-1.3696484131885678
-1.0639002716540478
-0.04461155766332025
-2.832720950708929e-08
-7.989860592563316e-06
-4.220051505290803e-05
-0.00014588936971411467
-0.0004041645116036716
-0.0009656591644628225
-0.0020651698219849223
-0.004041411991719136
-0.00734185013924742
-0.012505991727866267
-0.02012101785981459
-0.030750252938837916
-0.04484570993244715
-0.06266884021827956
-0.08425457337723845
-0.10945722467407241
-0.13810771606877903
-0.17028748155080722
-0.20668812829689456
-0.248985911599615
-0.3001291286851656
-0.3644278990415859
-0.44735825235745363
-0.5550460172041838
-0.6934703019767722
-0.8675025829133398
-1.079953716510458
-1.3308196673582182
-1.616889508545621
-1.9318113908042631
-2.26662039090975
-2.6106396538153085
-2.952595739417978
-3.281756276797309
-3.5889077436594516
-3.8670370972732813
-4.11164858011955
-4.320718531935839
-4.4943505163196225
-4.634230215815859
-4.742991342354177
-4.82359379525938
-4.878791072211921
-4.910733932727902
-4.920728273855448
-4.909141339735648
-4.875434294108749
-4.8182928206260245
-4.735832006678237
-4.625865924767322
-4.486250308796487
-4.315319383567595
-4.1124368741424115
-3.878663311463973
-3.6175092853235298
-3.3357006358689034
-3.043827249880953
-2.75668395549869
-2.4930557190139337
-2.274689403848037
-2.1242844884009044
-2.062558896356884
-2.104774213333367
-2.2574275518923463
-2.515978905608472
-2.8643578969014487
-3.2765689855076525
-3.7201182496355876
-4.160442309574028
-4.565248018522125
-4.907776391994144
-5.168433289258051
-5.334801570954735
-5.400542066432371
-5.36393422444488
-5.226745137198271
-4.993809470005237
-4.6732936894785775
-4.277266245943711
-3.822024319127357
-3.327686537075821
-2.816814734343099
-2.3121749723183824
-1.834060627735187
-1.3977717118702848
-1.0118277877729633
-0.6773120625460496
-0.3884798843631192
-0.134507621265457
0.09792797578859504
0.32164763821615255
0.5459827167181582
0.7742254478820048
1.001844681267846
1.2154744613132253
1.3917415139288214
1.4924908695137615
1.4466142739248624
1.0930695739533578
0.045578856673262905
-7.215512661344501e-08
-1.675155350601953e-05
-8.374892358215829e-05
-0.0002772425472305271
-0.000741127236185302
-0.0017186363372166788
-0.0035845271462869753
-0.0068697025463936015
-0.012267055264159412
-0.020605792251630117
-0.03278346627058036
-0.049652310343744094
-0.07187008982976253
-0.09974410287983367
-0.1331155788684103
-0.17134314629025305
-0.21344002356191769
-0.25839438377929597
-0.30565632484972344
-0.35571672601630294
-0.41064926795353096
-0.4744566923106051
-0.5530722846401271
-0.6539236443598503
-0.7850596838731339
-0.9539513311053812
-1.166171556258132
-1.4242125002623993
-1.726688972136979
-2.0681078060428
-2.439268523848851
-2.828231756594098
-3.2216804991611143
-3.6064316761627873
-3.9708445096590856
-4.305915004834291
-4.605926649245829
-4.8686231576501156
-5.094956631174026
-5.288526377627887
-5.45485147207139
-5.600615098783475
-5.732989457789084
-5.859108765790378
-5.985715937109388
-6.118972864224012
-6.264396736697066
-6.4268647306506805
-6.610616802402969
-6.819184110886662
-7.055182328191276
-7.319934730495937
-7.61292420178855
-7.9311100241730355
-8.268185227696458
-8.613902469010625
-8.95366717264218
-9.26866941034944
-9.536850262208317
-9.734906572413266
-9.841290711285245
-9.83979688892059
-9.722970907168921
-9.49440915147206
-9.169154112795603
-8.771850139231777
-8.332948539927672
-7.883810964583003
-7.451841570272913
-7.056691439692749
-6.708189639388707
-6.406143036139082
-6.1417089957703945
-5.899808526857368
-5.662028065615422
-5.409578814320175
-5.126031516778128
-4.799637748562935
-4.425066238237047
-4.004365710645821
-3.5469822739311807
-3.0687587905570823
-2.5900240957458265
-2.1330845848224094
-1.7195744701732667
-1.3681336107246003
-1.0927456940226685
-0.901833359381415
-0.797967274058946
-0.7779061670413302
-0.8327067544329793
-0.9478154543887544
-1.1032854957608242
-1.2743905627082353
-1.4326961997299925
-1.5467176618994551
-1.57877803302884
-1.4683347004958196
-1.0759933022947894
-0.04464605853616341
-1.685209448420224e-07
-3.3295573634651856e-05
-0.00015804656184106828
-0.000501408032787938
-0.0012927412251536193
-0.002905842589410009
-0.005900455848460306
-0.011053565168316312
-0.019367083972002267
-0.03203567191727436
-0.050358620626295626
-0.07558592260492639
-0.10870318567906193
-0.1501830708682034
-0.19975841456634175
-0.2562954709816026
-0.31785304061921177
-0.38199383343564935
-0.4463637121535505
-0.509478682216277
-0.5715767735871277
-0.635328657898039
-0.7061833747431464
-0.7921702812136443
-0.9030835798237383
-1.0491193791598963
-1.239179681376461
-1.4791613062443383
-1.770578287225106
-2.109811749948807
-2.4881542715143605
-2.8926493511923836
-3.307564048685342
-3.716214012471888
-4.102810497500636
-4.454023753633944
-4.760042215089742
-5.015025226331937
-5.216967792599196
-5.367092871152117
-5.46894398905909
-5.527364452101274
-5.54752586640311
-5.534122428219891
-5.490795640791141
-5.419811505232636
-5.321986274927811
-5.196845907369869
-5.043000459523082
-4.858710178594899
-4.642613063049365
-4.394577182745813
-4.1166347715219676
-3.8139375675751435
-3.495624809138333
-3.1754087691045014
-2.87158515323822
-2.6061361816458057
-2.402694924181583
-2.283419229690063
-2.2652272090834127
-2.35622140620429
-2.553287150078068
-2.841667051827429
-3.1968066958523873
-3.58810730283004
-3.9836595060941646
-4.354780413871944
-4.679312223221315
-4.9430847147992765
-5.139509426956963
-5.267759803158948
-5.330266211304527
-5.33028564534849
-5.27014457754799
-5.150488327471578
-4.9705836050279295
-4.729467819248628
-4.427550882626221
-4.0681739989349595
-3.6586344535928634
-3.2103070914914267
-2.737720996912874
-2.2567393355376235
-1.7822666353639645
-1.3260865834083453
-0.8954502504888147
-0.4928698007219494
-0.11726003341869859
0.23381244540674398
0.5613639376020758
0.8625225933576314
1.1291637227520246
1.3481849538948532
1.5033273326583123
1.5772855006122783
1.5504867745330617
1.3872237290917107
0.9847102095884874
0.04061631289610889
-3.6907633394457017e-07
-6.35484430649682e-05
-0.00028714448593402953
-0.0008735428493936183
-0.002170452404759625
-0.0047205195522005555
-0.009307699344521197
-0.01699098996687484
-0.029112779569825012
-0.04726480896675312
-0.07319170967231636
-0.1086139846953567
-0.15496374468059165
-0.21305053880360286
-0.28270970180754157
-0.36252349497442826
-0.44973130503215547
-0.5404422413407202
-0.6302191557876807
-0.7150169794401602
-0.7923464865232924
-0.8624283840314287
-0.9290398086305205
-0.9997671092115841
-1.0854766740723516
-1.1989837314448324
-1.353096386855658
-1.5583838041168196
-1.82111227666208
-2.141780619826831
-2.514567491702103
-2.9278093430841445
-3.365410530293445
-3.808902451461384
-4.239759467485632
-4.641565039867288
-5.001694554360245
-5.31231330753602
-5.570640678271402
-5.778567993200403
-5.941812082513386
-6.0688274051880695
-6.1696886390370755
-6.255104386959527
-6.335648835173572
-6.421222064557517
-6.520689865781382
-6.641621881028436
-6.790042694269897
-6.970123495206296
-7.183759837743906
-7.430002774589547
-7.704352637118313
-7.9980096058914345
-8.297305024920778
-8.583668680954823
-8.83453317423895
-9.02544825945208
-9.133349006248357
-9.140473235631186
-9.038033485160463
-8.82861352989308
-8.526490230616227
-8.155631636573581
-7.74579577426042
-7.327693755820795
-6.928386697705158
-6.567905317627937
-6.257618168026824
-6.000328437282599
-5.791648555887963
-5.622005776338125
-5.478681375508584
-5.3475047160388165
-5.2140961007777475
-5.064774343500805
-4.887352183840018
-4.672020536126434
-4.412399090326169
-4.106661693921016
-3.7584956620390906
-3.3775808655602564
-2.9793068979090758
-2.58357799757788
-2.21274476116025
-1.8888905849925461
-1.6308380406535916
-1.451302694684875
-1.3546182373134872
-1.335413244530929
-1.3785531914554157
-1.4605586564550053
-1.552530344110855
-1.6243029535218976
-1.6490613599055852
-1.6068506212593736
-1.4837436264810873
-1.2589367336918909
-0.8587339864147184
-0.03522311756722204
-7.718928438422034e-07
-0.00011789997475631537
-0.000508544009364981
-0.0014853267527206472
-0.003556392131997434
-0.007474648332141315
-0.01427779423980369
-0.025312852098902845
-0.04223790276106149
-0.06698898992109445
-0.10169280393564702
-0.14849977158400693
-0.2093145140812618
-0.2854186532254597
-0.37701809095440586
-0.4827982583077227
-0.5996211668266699
-0.7225244143511466
-0.8451616378610081
-0.960744067039931
-1.0634116929156596
-1.1498110521620841
-1.220532269418085
-1.2810098775005414
-1.3415519888265908
-1.4163305184668762
-1.5214048202228756
-1.6720983063065762
-1.8802307970324637
-2.151772914662726
-2.4854118032057455
-2.872320149063238
-3.297157297135358
-3.7400726311718158
-4.179291794816148
-4.593786066027354
-4.96556144917322
-5.281233059015395
-5.532728590479087
-5.717144127330917
-5.835917852610206
-5.893571738290393
-5.896295642218938
-5.850622847200052
-5.762386863249991
-5.636072967624845
-5.474601112256084
-5.279516213589313
-5.051530548221489
-4.791361488813361
-4.5008158382525885
-4.184052153539319
-3.848872088406985
-3.507755330473718
-3.1782215785757684
-2.882080127266795
-2.643302684513636
-2.484636669759028
-2.423555804334782
-2.4685256868220105
-2.6166497684668615
-2.8534683280783972
-3.1550875711737034
-3.4921348112432353
-3.8345259222923875
-4.155872189423749
-4.436572556822693
-4.665112754256517
-4.8376256368255435
-4.956174088854768
-5.026401014372445
-5.055155470370812
-5.048529072213131
-5.0105238716600855
-4.942399753139213
-4.8426474320358555
-4.707490617429477
-4.531803416785911
-4.310304778108743
-4.038850229700515
-3.715598916010115
-3.3418253198188004
-2.922202330394587
-2.464513226432196
-1.9789243195898953
-1.4771028603058853
-0.9715211455538288
-0.4751975845038545
-0.001896481158864174
0.433482162604393
0.8148159319276033
1.1254987535146466
1.3502907347346416
1.4780896908696566
1.5048302171017018
1.4350399916178072
1.2794844918417054
1.0431374463299348
0.6870343140804448
0.027985504587091262
-1.558506680373314e-06
-0.00021411097738020972
-0.000884676355790127
-0.0024871207129271043
-0.005748310568079782
-0.011683442292658995
-0.021610534925543594
-0.0371440311193345
-0.06017175544852202
-0.092816549706897
-0.13737274196555344
-0.19619110199180637
-0.2714726163560716
-0.364933524844436
-0.4773324256696616
-0.6079073786215864
-0.7538453905538053
-0.9099725200861858
-1.0688763135825157
-1.221624826631983
-1.3591196475033254
-1.4739357326022666
-1.562309175382419
-1.625801126876969
-1.6721499708542584
-1.7149510408382935
-1.7720544011415977
-1.8628834418747968
-2.0051620238458763
-2.211711096111418
-2.4879845184586404
-2.8308548359553174
-3.2288787690436793
-3.663947900835545
-4.113948177085635
-4.555879255593448
-4.968852154416858
-5.336481225101755
-5.648371986789794
-5.9006215327915275
-6.095437418043401
-6.240106304148052
-6.345592503712472
-6.425029174821731
-6.49230420058637
-6.560861600078892
-6.642752630948054
-6.747887922768715
-6.883376965519619
-7.052820480284695
-7.255476939533549
-7.485370773716492
-7.730613294211017
-7.973378226254443
-8.190995000250316
-8.358413633582876
-8.451873919546182
-8.453117598299277
-8.353126577167531
-8.154337535633152
-7.870631962188792
-7.525022669117524
-7.145621915867909
-6.7609342110526285
-6.395614634698498
-6.067570695669964
-5.786798474568282
-5.555829497963194
-5.371293177016974
-5.225953647961143
-5.110646008748075
-5.015737015197895
-4.931973846860407
-4.850787314466823
-4.7642458001841534
-4.664908511734714
-4.545813366370389
-4.400770806698455
-4.225031865969749
-4.016268643205297
-3.7756669168639885
-3.508814413846214
-3.226013352541284
-2.94168872755622
-2.67272237986109
-2.435802913034599
-2.2441909620962264
-2.1045750481696106
-2.014839630177785
-1.963503401882672
-1.9312775047661233
-1.8946765026230392
-1.8310062756605905
-1.7235278943974275
-1.5653227020473617
-1.3603852113125403
-1.120343274536255
-0.8533963195865834
-0.5337643331539677
-0.021621806509614094
-3.0414062383825935e-06
-0.0003800300900171561
-0.0015101064314648994
-0.004101654605618951
-0.009183152942110664
-0.018107115431207625
-0.03251388240719834
-0.054263308308586826
-0.0853554536158958
-0.1278639515971763
-0.18389390505044154
-0.255549773306321
-0.34486563949158966
-0.4536263833418892
-0.5830128347291916
-0.7330507542064808
-0.901931121570244
-1.0853753312347916
-1.2763027741703734
-1.4650736698825746
-1.6404946863170722
-1.791589290948097
-1.909890436048343
-1.9917848020545001
-2.040309594724672
-2.0658369725570873
-2.0852909303163645
-2.1198811448256936
-2.191714704172052
-2.319949184001115
-2.517288424336874
-2.787554923098308
-3.1248216378302383
-3.514225620452674
-3.93421716681336
-4.359715774348907
-4.7655098015269
-5.129265601441782
-5.433675422691996
-5.667513362549086
-5.825617239742216
-5.908012892703874
-5.9185110092404924
-5.863130114783677
-5.748655123752556
-5.581565945091038
-5.367496991390157
-5.111324399001547
-4.817902758976553
-4.493353966524562
-4.1466347855339905
-3.790915390814467
-3.4441805606415814
-3.128525285011277
-2.867913031365317
-2.6846467190366274
-2.5953073911492073
-2.6072316236271766
-2.7165653044285434
-2.908526107224994
-3.1598669658477507
-3.442896472575462
-3.7300109533793036
-3.9976515941030404
-4.228892915085757
-4.414349604077805
-4.551567204087297
-4.643387049673772
-4.695883448353923
-4.71638737582951
-4.711917738168254
-4.688130929875692
-4.648739971092053
-4.595275255518279
-4.527054769439903
-4.441276883710701
-4.333211837197534
-4.19652154545141
-4.023763800259742
-3.8071300771199463
-3.539430450235332
-3.2152864820064178
-2.8324375929401535
-2.3930186183704887
-1.9046287330475882
-1.3809820942564686
-0.8419094060046792
-0.3124823543096859
0.1789078285726113
0.6035329965681291
0.936125641866862
1.1589159400423605
1.265043179757347
1.2603711240983253
1.162923347356509
0.9995857672383501
0.8000094767360311
0.5865946640329643
0.3535763584075029
0.014178061571367369
-5.698342845454838e-06
-0.0006535925790008064
-0.0025069041657271624
-0.006604051259127643
-0.014383379549971336
-0.02763865275251731
-0.04840783785242106
-0.07881031210354683
-0.12087177761926708
-0.17638821196186924
-0.2468736675935783
-0.3336063826390123
-0.4377372332154814
-0.5603697256603279
-0.7024869865426968
-0.8646153254229799
-1.0461908348495113
-1.244725823184299
-1.4550173968576001
-1.6687422431089427
-1.8747807890016541
-2.060478410438309
-2.213796902477305
-2.3260033229164994
-2.3942866862179453
-2.4235855999946656
-2.427011134261781
-2.4245509933031784
-2.440165571545807
-2.497810117043033
-2.6172125010713905
-2.8103150623855475
-3.0791318464547386
-3.415431270275627
-3.8022315236454367
-4.216709083606724
-4.633864215557775
-5.030208422737254
-5.386831090154223
-5.691417388398803
-5.9390568483266595
-6.131931725673092
-6.278151361009285
-6.390072150290491
-6.482410237054579
-6.5703446856338426
-6.667679908858239
-6.785057868425188
-6.928237619662844
-7.0965971061395825
-7.282196241035955
-7.469855025664427
-7.638630290216633
-7.764773990609561
-7.825794345312096
-7.804790941172569
-7.693998985662372
-7.496589400742754
-7.226221521082754
-6.9044785834904925
-6.556899995894974
-6.20865250080713
-5.880862157889354
-5.588308703399676
-5.338714194288829
-5.133416350843395
-4.968934546887643
-4.83885896011603
-4.735587043118953