# vtk DataFile Version 4.1 
COMMENT
ASCII
DATASET STRUCTURED_POINTS 
DIMENSIONS 100 100 1 
ORIGIN 0 0 0
SPACING 0.12693303650867893 0.12693303650867893 0 
POINT_DATA 10000
SCALARS U double 1
LOOKUP_TABLE default
0.0
0.0
0.0
0.0
0.0
0.0
0.0
0.0
0.0
0.0
0.0
0.0
0.0
0.0
0.0
0.0
0.0
0.0
0.0
0.0
0.0
0.0
0.0
0.0
0.0
0.0
0.0
0.0
0.0
0.0
0.0
0.0
0.0
0.0
0.0
0.0
0.0
0.0
0.0
0.0
0.0
0.0
0.0
0.0
0.0
0.0
0.0
0.0
0.0
0.0
0.0
0.0
0.0
0.0
0.0
0.0
0.0
0.0
0.0
0.0
0.0
0.0
0.0
0.0
0.0
0.0
0.0
0.0
0.0
0.0
0.0
0.0
0.0
0.0
0.0
0.0
0.0
0.0
0.0
0.0
0.0
0.0
0.0
0.0
0.0
0.0
0.0
0.0
0.0
0.0
0.0
0.0
0.0
0.0
0.0
0.0
0.0
0.0
0.0
0.0
-4.6102857922184706e-12
2.2612776716506427e-09
2.490970816427866e-08
1.4065867836204937e-07
5.702166927121586e-07
1.8713896529744025e-06
5.276928491801875e-06
1.3238309560398617e-05
3.0224634441803195e-05
6.380201254500464e-05
0.00012597853308427828
0.00023474650902499566
0.00041569420861030344
0.0007035037311503828
0.001143110974722148
0.001790287508088975
0.002711419047247149
0.003982302895172585
0.005685863675785839
0.007908784823209532
0.010737161065753856
0.014251381585145549
0.018520542186038633
0.023596747542728728
0.02950969483855865
0.036261925495043666
0.04382509392840212
0.05213753657743385
0.06110333849334935
0.0705929975254647
0.08044568664762149
0.09047302144122152
0.10046415877301425
0.1101919888553099
0.11942013859798038
0.12791047990274643
0.1354308310757339
0.14176255034897212
0.1467077443112101
0.15009584720345218
0.15178936591665798
0.1516886268584944
0.1497354019112865
0.14591532945502725
0.14025908159855352
0.13284225981547354
0.12378402827496465
0.11324451803741022
0.10142105715093531
0.08854330301590085
0.07486737572248839
0.06066911575983079
0.046236617405638614
0.031862220302887635
0.017834175218944676
0.004428233527551094
-0.008100559904658586
-0.01952556841050438
-0.029655448001856592
-0.038339909875015774
-0.045474082778135874
-0.05100124368927807
-0.05491374962614336
-0.05725208088857109
-0.05810199062086734
-0.05758984149441192
-0.05587629359069951
-0.05314858702133631
-0.0496117397452743
-0.04547905738715535
-0.040962427165109026
-0.03626293605391717
-0.0315623998610316
-0.027016393693209573
-0.022749311925747466
-0.018851840544957813
-0.015380996873602405
-0.012362605784493932
-0.00979578622277257
-0.007658779606502926
-0.00591532006148638
-0.0045207580646692775
-0.003427298493856307
-0.002587958637829381
-0.001959126514503144
-0.0015018404856599911
-0.0011820739246478293
-0.0009703796839487506
-0.0008412402246349096
-0.0007724057789173889
-0.0007444106024029155
-0.0007403553007797012
-0.0007459425186189868
-0.000749655765620965
-0.0007428539431294981
-0.0007193082499729354
-0.0006729388609578875
-0.0005899200301785314
-0.0004229056541455047
-1.8450077103223547e-05
-9.546837212794061e-12
7.946895779445017e-09
7.096459081952949e-08
3.5420876977689785e-07
1.3107830173710624e-06
3.993163223053204e-06
1.0559719651010267e-05
2.5017474026950926e-05
5.421289017789214e-05
0.0001090371029681957
0.00020575622540927076
0.0003673209001003776
0.0006244638491809033
0.001016371089705223
0.0015907198143871593
0.0024029166142551127
0.0035144406362904662
0.00499028876164949
0.006895621352729936
0.009291803344191503
0.012232113153434697
0.015757440849404503
0.01989231154613678
0.024641549412080656
0.0299878460082607
0.03589042149876522
0.04228487837328347
0.04908425502130544
0.05618120031564576
0.06345111793278795
0.07075607558999877
0.07794924215745813
0.0848796046503377
0.09139672531589609
0.09735532285272326
0.10261949687334788
0.10706645646704772
0.11058965781463775
0.11310129852820802
0.11453415481158882
0.11484277960840614
0.114004104415003
0.11201750392586826
0.10890439130872345
0.10470741331345405
0.09948930959599457
0.09333149083530524
0.08633237688773976
0.07860552098317204
0.07027753062441833
0.06148578239404944
0.05237591845122682
0.04309910933291258
0.033809072827335626
0.024658853714631786
0.015797394585113752
0.007365962623056841
-0.0005054621235910836
-0.007701690605132404
-0.014125541101424626
-0.019700571443636166
-0.024373137815938323
-0.028113626682010107
-0.030916769434934183
-0.032801031038025244
-0.03380714887683629
-0.033995967037755405
-0.03344574620611114
-0.03224911976625968
-0.030509815042965373
-0.028339183208761977
-0.025852513538544702
-0.023165083111973284
-0.0203879383251437
-0.017623523111249595
-0.01496143249538767
-0.012474722603411608
-0.01021728179897882
-0.00822270992038511
-0.006504952468493043
-0.005060635982536429
-0.0038727343842845235
-0.0029149603659277892
-0.0021561911817294345
-0.0015643206777610917
-0.0011091376556831942
-0.0007640873375273096
-0.0005069991712189602
-0.0003200104798196465
-0.00018897148395447712
-0.00010260401546230012
-5.163564863056942e-05
-2.8067338847187638e-05
-2.4664353115997197e-05
-3.467942166154571e-05
-5.169534663073781e-05
-6.923578966795879e-05
-7.925035769015769e-05
-6.741901429358833e-05
-3.363309608887358e-06
-1.020543927877914e-11
2.618384359096637e-08
2.0602490393684468e-07
9.512193239854202e-07
3.325393927464359e-06
9.684958104220458e-06
2.467685741959288e-05
5.66460865270097e-05
0.00011944821611632782
0.00023458264674064682
0.0004334725061220318
0.0007596333980560094
0.0012704131483726128
0.0020379631244291973
0.0031491273964942596
0.004704009659182574
0.006813091862269814
0.009592918569825264
0.013160508810306884
0.017626793499368677
0.02308948469042089
0.02962585095705299
0.03728589519335014
0.04608640728580344
0.05600630010473825
0.06698354264320376
0.07891389060199847
0.09165149438663833
0.10501134838598909
0.11877344247841824
0.13268839322292605
0.14648427160029448
0.15987430734771163
0.17256513561956419
0.18426525708299596
0.19469340382389713
0.2035865363731113
0.2107072375589611
0.21585031289801843
0.21884845156848695
0.2195768440714325
0.21795669059299946
0.21395756664255816
0.20759863918476287
0.1989487471662847
0.18812537545478172
0.17529256149708458
0.1606577804708877
0.14446785856333055
0.12700396665099725
0.10857574964118752
0.08951465181739497
0.07016650768465725
0.05088348321993339
0.03201547640547888
0.013901120611403639
-0.0031414187454627874
-0.018823604897192786
-0.03289533013792791
-0.04515296730135626
-0.05544622107243789
-0.06368328942606996
-0.06983384961244841
-0.0739294477520886
-0.07606100852223532
-0.07637339242912503
-0.07505719723207771
-0.07233829334259777
-0.0684658511418353
-0.06369980517977734
-0.05829875756445798
-0.05250922552140999
-0.04655689772196967
-0.04064023241051409
-0.03492638930908353
-0.029549223976148332
-0.02460894922246161
-0.02017309341963275
-0.016278512054358554
-0.012934349483384356
-0.010125915161001605
-0.007819386858155876
-0.005967101598343719
-0.00451301832000894
-0.0033978283465451484
-0.0025632158257176377
-0.0019549352900188914
-0.0015246214971003983
-0.001230490313331167
-0.001037251086382015
-0.0009155944549290272
-0.0008415569992458934
-0.0007959390306611805
-0.000763807537044254
-0.0007339563589957046
-0.0006979167018642602
-0.0006473258263359613
-0.0005659754296971038
-0.00040520016851426253
-1.765772346839377e-05
3.234553879518264e-11
7.812561892045376e-08
5.519591774405118e-07
2.3679444732930036e-06
7.817348589040227e-06
2.170417367208607e-05
5.3047697800699915e-05
0.00011732699719134052
0.000239165008433813
0.00045522289117238776
0.000816956131319788
0.0013927988247892657
0.002269314715080315
0.003550896050940987
0.0053577045266668235
0.007821719629451487
0.011080965213637701
0.015272195686797165
0.02052250905650677
0.026940490210979384
0.03460755765373258
0.04357018430163074
0.0538335919437201
0.06535739207832221
0.07805348128477863
0.09178631765989101
0.10637552616742138
0.12160062200396385
0.1372075146940307
0.15291636877824422
0.16843035174290466
0.18344479398348784
0.1976563135490089
0.21077151257489704
0.22251492419297147
0.23263596993273103
0.2409147706772248
0.24716673291813288
0.2512459017341466
0.25304712953839276
0.25250715359793086
0.24960470524106815
0.24435979011571057
0.23683228311321486
0.2271199753413113
0.21535619577429585
0.20170710897863972
0.18636876464765692
0.16956394655239454
0.151538839809821
0.13255950788160925
0.11290814619162429
0.09287905943550515
0.07277429639002116
0.052898871356877784
0.033555507661372115
0.015038858615344696
-0.0023708019496007328
-0.01841437125446717
-0.032861065492745735
-0.045515700585017325
-0.05622576952826409
-0.06488786402094845
-0.07145288752926
-0.07592944749234415
-0.07838482466101539
-0.07894302324427589
-0.07777962037550307
-0.07511345003714887
-0.07119553980425665
-0.06629610536239512
-0.06069071597102907
-0.054646893355686475
-0.048412343802920886
-0.04220574669241011
-0.03621059224203717
-0.030572086649866232
-0.025396749231457075
-0.020754107992486778
-0.016679883293279817
-0.013180181436810497
-0.010236396213520231
-0.007810630419722793
-0.005851444971462595
-0.0042996391997354244
-0.0030936411493552177
-0.0021740349153617925
-0.0014868312439838386
-0.000985291544560633
-0.0006303798578126808
-0.00039015381450003867
-0.00023854209890996177
-0.00015396230577883536
-0.00011812133927295946
-0.00011513981418899274
-0.00013085202532961765
-0.00015165132987268528
-0.00016127194100096367
-0.0001319030204009485
-6.116561687777964e-06
2.6040990846482516e-10
2.1533039700067384e-07
1.3907316515986075e-06
5.5956875021196005e-06
1.755469763657906e-05
4.669294292512283e-05
0.0001099442139704908
0.00023523145855104314
0.000465356751939355
0.0008618661710771589
0.0015083241586272599
0.0025123752994985838
0.004006009825977911
0.0061435852912725235
0.009097374526074516
0.013050677821670017
0.01818881536810319
0.024688563858652837
0.03270678511080777
0.04236909269619568
0.05375940728699259
0.06691116880425213
0.08180082055298804
0.09834398128789984
0.1163945019398294
0.13574638935820257
0.1561383901774751
0.17726087785397404
0.19876458239284708
0.22027064646064634
0.24138147964865753
0.2616919073713142
0.28080016315043876
0.29831834328243256
0.3138820221600783
0.3271588072062411
0.3378556885656331
0.3457251062808235
0.3505697142096037
0.35224586439855016
0.35066586808802136
0.3457991108404582
0.3376721107980321
0.32636761238148126
0.3120228045136035
0.2948267443348294
0.2750170559399341
0.2528759603820569
0.22872567947622247
0.20292324317786173
0.1758547199104199
0.1479288825900193
0.1195703216585641
0.09121202152116396
0.06328742951671791
0.03622206771260576
0.010424767716075579
-0.013721352884358806
-0.03586800762154915
-0.05571073412206595
-0.07299748735081386
-0.0875364967005061
-0.09920299014864617
-0.10794433454032047
-0.11378310251940996
-0.1168175680922238
-0.11721917355936955
-0.11522662242873426
-0.1111364545733386
-0.1052902577405874
-0.0980590472245012
-0.08982575606060816
-0.08096714394264592
-0.07183665910879541
-0.06274978755571066
-0.05397315453278208
-0.04571813103944245
-0.03813904641317882
-0.03133547298496748
-0.025357587792832564
-0.020213430437188144
-0.015876970722443772
-0.012296185700837608
-0.009400682374866862
-0.007108661208129654
-0.005333133718732037
-0.003987303361183027
-0.002988967269749892
-0.0022637786603642396
-0.0017472699562168658
-0.0013856652706229434
-0.0011356581138118702
-0.0009634365599402182
-0.000843257231187924
-0.0007557622380609507
-0.0006859082325977254
-0.0006195196770087329
-0.0005351076219899664
-0.000380900131500056
-1.656403266042731e-05
1.1053910653011073e-09
5.536897811093995e-07
3.30898267860583e-06
1.2565158507600961e-05
3.7603166249707556e-05
9.606417663627143e-05
0.000218291527762188
0.0004523390002429331
0.0008691027237374031
0.0015668355973093443
0.0026742027956011168
0.00435106867635263
0.006786376995560251
0.01019277749573831
0.01479801913568433
0.020833516458520305
0.02852084217054298
0.0380571565688572
0.04960072084095037
0.06325764507996792
0.07907090183714209
0.09701241693188631
0.11697876581360366
0.13879069419265067
0.16219638168609585
0.18687810588279438
0.21246176138338063
0.23852855408184892
0.2646281263275367
0.2902923675687681
0.31504921664760144
0.3384358524807624
0.36001078520418905
0.3793644866976292
0.3961283264354424
0.40998169703907444
0.42065731759053143
0.4279447880353724
0.43169253330482177
0.43180832122856794
0.4282585651943919
0.42106663289908475
0.4103103788820396
0.39611910340433365
0.3786701161103038
0.35818505205786716
0.3349260521456304
0.309191881475125
0.2813140193621609
0.25165271507541526
0.22059296551540025
0.1885403367416801
0.15591652264050912
0.12315451365801532
0.0906932393917117
0.05897155420923976
0.02842145819777973
-0.0005395106245808123
-0.02751671119568042
-0.05214757220870434
-0.07411130693195692
-0.09313885378244341
-0.10902260073216911
-0.12162533175966217
-0.13088773286333488
-0.13683372900179858
-0.13957290889799717
-0.1392993506096955
-0.13628630604237293
-0.13087645287309416
-0.12346778343426795
-0.11449565798708287
-0.10441206061245521
-0.09366358099617823
-0.0826699983791704
-0.0718054543274466
-0.0613839907799474
-0.05165069196621657
-0.04277888857278806
-0.03487302652795134
-0.027976071539097796
-0.0220798804658761
-0.017136893949941705
-0.013071746557083123
-0.00979181566516369
-0.0071961759018939215
-0.005182770175588732
-0.0036538090031579384
-0.002519498976922987
-0.001700245140034604
-0.0011275238128743358
-0.0007436935666130263
-0.0005010741477077994
-0.00036062901435566705
-0.000290487593966592
-0.00026427242200370305
-0.0002586008877903864
-0.00024783712962971386
-0.00019144978871961992
-8.611698506580126e-06
3.7145054532769327e-09
1.3384241996022088e-06
7.4699320511934434e-06
2.6910664037813334e-05
7.709263265141578e-05
0.0001896462559193297
0.00041672775317656396
0.0008377475830585788
0.0015655604304046047
0.0027510079012387596
0.004584713998992061
0.007295237386820726
0.011143059064718795
0.016410370329500157
0.0233871440250291
0.03235443929218518
0.04356623667395251
0.05723128175171187
0.07349641670731613
0.0924327142260464
0.11402543324437849
0.1381684407000337
0.1646633407207416
0.19322317087171706
0.22348020179634612
0.254997135815773
0.2872808518309617
0.31979778600913555
0.35199005883245765
0.38329154200357696
0.4131431839024887
0.4410070605934223
0.46637877394363203
0.48879796588114544
0.5078568487465174
0.5232067604304352
0.534562837159097
0.5417069565902339
0.5444891413263806
0.5428276311536695
0.536707834894003
0.5261803633808572
0.5113583271266107
0.49241405867284205
0.4695753927878956
0.44312160942901524
0.4133791160469437
0.3807169182886681
0.3455419020476394
0.3082939255280517
0.2694406978763525
0.22947240140873132
0.18889599816347463
0.14822914942378101
0.1079936704631614
0.06870844409437396
0.03088172823167627
-0.00499718243505073
-0.038466939432434705
-0.06910370719289877
-0.09653117310190305
-0.1204307628647066
-0.1405517115219883
-0.1567205228626802
-0.16884923799911797
-0.17694184201927424
-0.18109808249378864
-0.18151397282108442
-0.1784783247623784
-0.17236481501869044
-0.163619354155589
-0.15274289821544765
-0.14027031279687396
-0.12674642759811533
-0.11270093257038143
-0.09862415847836947
-0.08494593530829339
-0.07201953552986327
-0.0601121565446325
-0.04940254685173667
-0.03998540023621289
-0.031881254156907866
-0.025050038643511262
-0.019406246670658756
-0.014833921887225918
-0.011200152937184633
-0.008366337049037895
-0.006196962801058389
-0.0045659767553882305
-0.0033609471804264437
-0.0024852868307183792
-0.0018588197056044644
-0.0014170116277308358
-0.0011092149816142296
-0.0008962333731233384
-0.0007472492896509724
-0.0006353542435865363
-0.0005287255040708714
-0.00036852954792575027
-1.597776230481999e-05
1.0848283880123361e-08
3.0592701876295776e-06
1.605982421964398e-05
5.512317607172419e-05
0.00015160674948490538
0.0003598967751742526
0.0007660281455526204
0.0014959715317850184
0.0027221441383931326
0.004666658488510186
0.007600052226224851
0.011834715333204494
0.017712871487254672
0.02558966736665953
0.03581256067690276
0.048698675271772254
0.06451204564526229
0.08344268165353143
0.10558916674592678
0.13094610990411615
0.15939727175990354
0.19071465210938263
0.22456332487772995
0.2605113875940252
0.29804408637185204
0.3365809957393401
0.3754950704710801
0.41413242692658864
0.4518318303595188
0.48794303583202875
0.5218433285151485
0.5529518126611539
0.5807411907029617
0.6047469433341252
0.6245739615086852
0.6399007896211976
0.6504817163279449
0.6561469982870334
0.6568015264630991
0.65242224897775
0.6430546531619289
0.6288085864674656
0.6098536646344287
0.5864144787570799
0.5587657727834475
0.5272277211018591
0.4921613933361217
0.4539644510799467
0.4130670796417043
0.36992811747471765
0.3250313074558634
0.2788815584016097
0.2320010734121578
0.18492517555725096
0.13819764341341922
0.09236536202250599
0.04797210252859248
0.005551269990465897
-0.034382492455567494
-0.07134288058086595
-0.10488262304970282
-0.13460510020903474
-0.16017654562060044
-0.18133832568486472
-0.19791863130880383
-0.20984277354292458
-0.21714117340030137
-0.2199540961344301
-0.21853222164956157
-0.21323228112523607
-0.2045072358572331
-0.19289083175676483
-0.1789768265006427
-0.16339373512789843
-0.14677652882511302
-0.12973727370929095
-0.11283710341098413
-0.09656205852551014
-0.0813050953083157
-0.06735592856569772
-0.054899394858037236
-0.04402187570613481
-0.034724251930226324
-0.02693911310425617
-0.020549679057715264
-0.01540812148976979
-0.011351578941248936
-0.008214925230334727
-0.005840063176588567
-0.004082025005283829
-0.002812424304303401
-0.0019208652569531112
-0.0013148556656266952
-0.0009186587428894396
-0.000671366320895101
-0.0005242046678015954
-0.000436465032506432
-0.0003679500618106664
-0.0002621974705922508
-1.1554834673644706e-05
2.862417120978135e-08
6.6433086348038954e-06
3.2990656011199065e-05
0.00010827376686411405
0.0002866149369813133
0.0006578362335860835
0.0013583358427392007
0.0025802054586394167
0.004576611383243516
0.007661695460161904
0.012203834214851618
0.01861192553390068
0.02731530107355289
0.038738725037057095
0.05327459431674963
0.07125480845670983
0.0929247984393938
0.11842191719676508
0.14775987297500578
0.18082022545846532
0.21735126513188344
0.2569739481691341
0.29919402867692996
0.3434191561145078
0.3889794998048121
0.43515041387688175
0.4811757383015855
0.5262905100235328
0.5697420956435391
0.610809019639329
0.6488170217091528
0.6831521129387973
0.7132706001672273
0.7387062049605473
0.7590745172071821
0.7740750966008894
0.7834915736663518
0.7871901121403736
0.7851165832768747
0.7772927763516789
0.7638119337929291
0.7448338583964712
0.7205797973704626
0.6913272658591649
0.6574049326230078
0.6191876534869962
0.577091704237996
0.5315702336654106
0.4831089289325958
0.4322218588245516
0.37944743501689443
0.3253444068696158
0.2704877812046021
0.21546453544120317
0.16086897145072998
0.10729754062457425
0.05534296113425473
0.005587450565975878
-0.04140508358828296
-0.08509801079034497
-0.12499214592837525
-0.1606370599913343
-0.1916433361335009
-0.2176954069770228
-0.2385644217436836
-0.2541204015979701
-0.26434277179294857
-0.269328237547988
-0.2692949256486834
-0.2645817708766433
-0.2556423037964924
-0.2430323026229197
-0.2273912039329516
-0.20941770874953727
-0.18984063904202253
-0.16938673932532164
-0.14874769517738554
-0.12854904510353948
-0.10932377343271728
-0.09149309078610247
-0.07535620074311702
-0.06108978319390721
-0.048756672339221874
-0.03832202212650052
-0.0296743910799628
-0.02264882105243731
-0.017049171280452
-0.012667593523634736
-0.00929988768567272
-0.006756329788829439
-0.00486823937242064
-0.0034909703341413243
-0.002504176009812001
-0.0018101700366352142
-0.0013310183748330615
-0.001004603933386991
-0.000779031457043708
-0.0006025402638402182
-0.0003999969871984959
-1.7261147968252895e-05
6.966864503329996e-08
1.3759306119354297e-05
6.494052528327773e-05
0.00020441170932657612
0.0005219466614458653
0.0011602219931494263
0.0023272786699158874
0.0043048876005871775
0.007450420647144771
0.01219051803689605
0.019005903404315214
0.028407925494456122
0.04090857141874912
0.056986597966054466
0.07705292962261266
0.10141852525766139
0.1302675535093147
0.1636380369945005
0.20141126020589376
0.24331032424423998
0.2889073945438222
0.33763851353303476
0.38882438753467674
0.4416953175430803
0.4954184081052213
0.5491253185705663
0.6019390678284133
0.652998717687567
0.7014810970601554
0.7466190540974593
0.7877160120517888
0.8241568428390762
0.8554152547117524
0.881058018387253
0.9007464350730093
0.9142354881449765
0.9213711266467265
0.9220861118309375
0.9163948251917359
0.904387393994055
0.8862234429094551
0.8621257313860272
0.8323738880331286
0.7972984068963379
0.7572750266580299
0.7127195726725374
0.6640833031725754
0.6118487646331247
0.5565261267474918
0.49864993437079674
0.43877618182558503
0.3774795840305756
0.3153508891807829
0.25299404976830103
0.19102304376122134
0.13005811768790937
0.07072121107434888
0.013630321078000426
-0.04060741777237457
-0.091404125280925
-0.1382011581759504
-0.1804807019286772
-0.21777885167168806
-0.2496998867129164
-0.27593123705441996
-0.2962584170872136
-0.31057898290848396
-0.318914384507337
-0.3214184660877659
-0.31838135095342324
-0.31022756025392745
-0.29750747539015193
-0.28088166522941943
-0.26109814784300917
-0.23896331052016964
-0.21530791993398837
-0.19095034298455893
-0.1666596711608882
-0.14312178249325797
-0.12091137067108809
-0.10047253857602068
-0.08210968364344723
-0.06598918878694057
-0.0521510743594872
-0.04052853020563041
-0.03097239260727944
-0.023277330317912494
-0.017206782075779616
-0.01251441837646692
-0.008960854564924299
-0.006325273425405169
-0.0044123360978943526
-0.003055183990206713
-0.00211546641293987
-0.0014812113311670437
-0.0010629813463972047
-0.0007879202179977002
-0.0005892600742671768
-0.0003832624364487969
-1.661560592777838e-05
1.5844995246137792e-07
2.7271650738690794e-05
0.00012280968823864713
0.00037171966920571033
0.0009173197224758352
0.001977845718696356
0.0038588704141599207
0.006958254779720882
0.011761146562950292
0.01882386602520146
0.028747125886293495
0.0421406033244118
0.05958212718711883
0.08157546439605556
0.10851080735291113
0.14063161886878994
0.17801061392837375
0.22053653039665871
0.26791215421756115
0.31966298373340446
0.37515506018340367
0.43361991963973573
0.49418434620727086
0.5559025971302926
0.6177889712988325
0.6788489357901076
0.7381074433923206
0.7946335095108751
0.847560525169614
0.8961021347949001
0.9395637879029882
0.9773502789336015
1.0089697237907829
1.0340344948165265
1.0522596600413348
1.0634594601429603
1.067542319140817
1.064504832242666
1.0544251141600403
1.0374558292932092
1.0138171653093828
0.9837899561559055
0.9477091106639998
0.9059574589683793
0.8589600907740722
0.8071792264450701
0.751109633132431
0.6912745727228716
0.628222245214085
0.5625226691242672
0.4947649186629008
0.4255546146774145
0.3555115421220758
0.2852672406435479
0.21546238713654775
0.14674376098325442
0.07976055653321915
0.01515978704740768
-0.04641948471562454
-0.10435334481006323
-0.1580418749933336
-0.20691979684204306
-0.25046894791222907
-0.28823246347652043
-0.31983032922017096
-0.34497572352403394
-0.3634913004264071
-0.3753243040695561
-0.38055918932369487
-0.379426293430342
-0.37230510122650595
-0.35972080512547444
-0.3423331989748834
-0.3209174606655082
-0.29633704791751503
-0.26950970799597546
-0.2413684152845796
-0.2128198081056844
-0.18470328496904484
-0.15775421627117062
-0.1325746156875766
-0.10961402488737353
-0.08916230699116884
-0.07135463975304121
-0.05618747754154876
-0.04354290412130038
-0.033217903915521055
-0.024954815585491976
-0.01846961721289058
-0.013475582065303679
-0.009700981261141781
-0.006900613407164948
-0.004861789082710476
-0.0034058706447174713
-0.0023865333170427143
-0.0016855388338742846
-0.0012057526475825213
-0.0008583545295405549
-0.0005329144732472227
-2.283340682205452e-05
3.397528506836483e-07
5.1880233376232244e-05
0.00022364185355962978
0.0006524045236416385
0.001558666887222753
0.0032642113468593667
0.006201591578123227
0.010911802875750262
0.018028177889307065
0.02824662685406763
0.04228444781771618
0.06083165556584983
0.08449982311280041
0.11377366950814545
0.14897010392955273
0.19020832210448488
0.23739309461085709
0.2902118485764523
0.3481447497283147
0.410485898859209
0.47637304626305293
0.5448229085288108
0.6147691981738055
0.6851007679569576
0.7546977350945833
0.822463996168808
0.8873550959964759
0.9484009179900962
1.0047230855683085
1.0555472887483677
1.1002109766801014
1.1381669951000235
1.1689838126840735
1.192342989302058
1.208034508938257
1.215950545115536
1.2160781587105005
1.208491355679381
1.1933428612293218
1.1708559008381487
1.1413162189415278
1.105064513519146
1.0624894188818916
1.014021128918499
0.9601257179507323
0.9013001851988762
0.8380682207667082
0.7709766652049826
0.7005926103814171
0.6275010659170586
0.5523030922323356
0.47561427771197
0.39806341315270605
0.3202911911718179
0.2429487316195377
0.1666957068057609
0.09219781394044112
0.020123319244459686
-0.04886161706872304
-0.11409912728518455
-0.17494760650901586
-0.2307916884208634
-0.2810543569934926
-0.32521118488357265
-0.3628064959980187
-0.39347100483190883
-0.4169401996795354
-0.433072433338911
-0.44186539814251335
-0.4434694368274272
-0.43819602677078473
-0.4265198196603338
-0.40907285702561125
-0.3866300288661576
-0.36008548580969507
-0.33042051385569327
-0.29866426648164063
-0.2658496299145687
-0.23296726363917586
-0.2009213887560237
-0.17049107242525005
-0.14230048150238267
-0.11680081054136565
-0.09426537223083542
-0.07479782022017092
-0.05835189786564129
-0.04475976219057328
-0.03376508369693734
-0.025056927384479996
-0.01830088000785411
-0.013164848475306553
-0.009338154895291152
-0.006543711945103849
-0.0045439448397444
-0.0031415786289096873
-0.0021763003278416175
-0.0015173017584835503
-0.00104855941068251
-0.0006337447001515447
-2.710407867288896e-05
6.913641178136906e-07
9.49726479241339e-05
0.00039300947535813425
0.0011071753615613412
0.0025647945784548947
0.0052236457975156515
0.009674174399347183
0.01662490044595009
0.026870498657477624
0.04124483212783532
0.060563606496333876
0.08556283673401094
0.11683977602408313
0.15480237737627386
0.19963196750802598
0.2512619433043727
0.3093733108760262
0.37340608411222936
0.44258415871628237
0.5159503857452497
0.5924081930649915
0.6707661763331193
0.7497824911089186
0.8282064970316072
0.9048158137740527
0.9784476489364914
1.0480238813571032
1.1125698897896186
1.1712274919255996
1.22326260655722
1.268068388648155
1.3051646356696458
1.334194247622789
1.3549174647499955
1.3672045244542825
1.3710272864845792
1.3664502828615144
1.3536215624861823
1.3327636231683933
1.3041646571110104
1.2681702795047785
1.2251758628492904
1.175619560587103
1.1199760712076539
1.0587511668118883
0.9924769870405062
0.9217080792191275
0.8470181476384199
0.7689974582055674
0.6882508284280949
0.6053961159523762
0.5210631007783887
0.43589263591690985
0.35053591785103866
0.26565370117809933
0.1819152512154023
0.09999679496577385
0.020579196704086016
-0.05565544672594361
-0.12802861827911027
-0.195871933889205
-0.25853574861811945
-0.3154000686510673
-0.36588791285495326
-0.4094810990483181
-0.4457381976028287
-0.47431410229788484
-0.49498033086578647
-0.5076448146357376
-0.5123696114199118
-0.5093847328443549
-0.49909617616319873
-0.482086345995151
-0.45910538218148866
-0.43105248806809354
-0.3989471563316946
-0.3638911568111599
-0.3270231873584165
-0.2894690713056723
-0.25229117398459217
-0.21644116498426982
-0.18272025151568333
-0.15175047706815784
-0.12395962040521025
-0.09958074425077348
-0.07866573565415651
-0.06111053278964039
-0.04668844583355865
-0.03508729328485556
-0.02594610078625232
-0.018887793478314922
-0.013545452503837256
-0.009581010873360413
-0.006696433193476898
-0.004638198874316132
-0.0031960315211016664
-0.002195751659352257
-0.0014820322469253837
-0.0008728736257579272
-3.705661603556434e-05
1.3419852732157944e-06
0.0001676944962768234
0.0006677850631197699
0.0018199938074931398
0.004093638924940295
0.008117536399301828
0.014669156888955127
0.024642045279009133
0.03899354839914791
0.05867818967642261
0.08457426241679816
0.11741204297637609
0.15771144993295952
0.2057352750760864
0.2614617331460923
0.32457750750093145
0.39449013256809046
0.4703567467298292
0.5511251159385655
0.6355823756475248
0.7224070705479373
0.8102206329120338
0.89763525766862
0.9832960457485624
1.0659161697786474
1.1443045819462954
1.2173863869604398
1.2842164310605049
1.343986922627417
1.396030027306366
1.4398164031236016
1.474950591449796
1.5011640865738414
1.5183067930067007
1.526337461990527
1.5253135877360697
1.5153811455105608
1.4967644700981089
1.4697565041783154
1.4347095902178912
1.3920269342970166
1.3421548335351496
1.2855757282911504
1.2228021143183623
1.1543713272068534
1.0808411907825317
1.0027865020073652
0.9207963069004702
0.8354719047471127
0.7474255010619204
0.6572794130288983
0.5656657139252863
0.4732261846634358
0.38061242024236336
0.2884859157522484
0.19751792995823075
0.10838889422372623
0.02178710134500293
-0.061593625087540904
-0.14105761077085885
-0.21591271078983296
-0.28547774162617207
-0.34909228717236035
-0.40612912654667627
-0.4560093994935405
-0.49822042518336046
-0.5323358185846986
-0.5580372120402969
-0.575136509012339
-0.5835972089462538
-0.5835529988986653
-0.5753215719879652
-0.5594115705786408
-0.5365207205327708
-0.5075236578602283
-0.47344865439081757
-0.4354433888248699
-0.39473100649903603
-0.3525588509577832
-0.3101432905174379
-0.2686148471438518
-0.2289682121806383
-0.19202158329815955
-0.1583890196913671
-0.12846821890855714
-0.10244440953336764
-0.0803091753949448
-0.06189129302748098
-0.04689538856680517
-0.034943635410921735
-0.025615903101759926
-0.018484638291812395
-0.013142065983910926
-0.009218710161167374
-0.006393384152847269
-0.004395268411616145
-0.0029976531629526074
-0.0019977926022321985
-0.001158835919349689
-4.898313496908893e-05
2.4951037974392465e-06
0.0002862122776699765
0.0010991260821539355
0.0029026138800862375
0.006347184650897433
0.012267278542740468
0.02165047755671285
0.0355811623171131
0.055164438183229976
0.08143941991970557
0.11529241085889633
0.15738005976240874
0.20807055901055826
0.2674079503235027
0.33510129371873215
0.41053741876367694
0.49281362618149893
0.5807852445869593
0.6731223813370455
0.7683704056305034