# vtk DataFile Version 4.1 
COMMENT
ASCII
DATASET STRUCTURED_POINTS 
DIMENSIONS 100 100 1 
ORIGIN 0 0 0
SPACING 0.12693303650867893 0.12693303650867893 0 
POINT_DATA 10000
SCALARS U double 1
LOOKUP_TABLE default
0.0
0.0
0.0
0.0
0.0
0.0
0.0
0.0
0.0
0.0
0.0
0.0
0.0
0.0
0.0
0.0
0.0
0.0
0.0
0.0
0.0
0.0
0.0
0.0
0.0
0.0
0.0
0.0
0.0
0.0
0.0
0.0
0.0
0.0
0.0
0.0
0.0
0.0
0.0
0.0
0.0
0.0
0.0
0.0
0.0
0.0
0.0
0.0
0.0
0.0
0.0
0.0
0.0
0.0
0.0
0.0
0.0
0.0
0.0
0.0
0.0
0.0
0.0
0.0
0.0
0.0
0.0
0.0
0.0
0.0
0.0
0.0
0.0
0.0
0.0
0.0
0.0
0.0
0.0
0.0
0.0
0.0
0.0
0.0
0.0
0.0
0.0
0.0
0.0
0.0
0.0
0.0
0.0
0.0
0.0
0.0
0.0
0.0
0.0
0.0
-1.209023103402335e-13
5.930081282266658e-11
6.497456013792314e-10
3.6526442673773868e-09
1.474390595063991e-08
4.8178297134460235e-08
1.3524861021961892e-07
3.377384895470187e-07
7.674063869013794e-07
1.6118509273458278e-06
3.1660179678786454e-06
5.867221823566526e-06
1.0330069016814439e-05
1.7376358903936018e-05
2.8054172029080274e-05
4.3640180180151e-05
6.561986233055186e-05
9.564179996828866e-05
0.00013544443010297976
0.00018675631405360346
0.0002511738173865134
0.00033002274778279523
0.00042421264664248265
0.0005340938313457823
0.0006593277929712178
0.0007987811351139418
0.0009504519649736324
0.0011114356755201227
0.0012779346019192853
0.001445313336652729
0.0016081987816723247
0.0017606215095158921
0.001896192860045933
0.0020083105227003567
0.0020903841980588955
0.00213607229925424
0.0021395205046022417
0.0020955932397844976
0.0020000897656879844
0.0018499373852005952
0.0016433552709165925
0.001379983478654435
0.0010609727876761427
0.00068903205519513
0.0002684307679631384
-0.0001950445849562627
-0.0006941807908288939
-0.0012204744191884106
-0.0017643131975438253
-0.0023151998792075713
-0.002862015068590424
-0.0033933141334702753
-0.003897651795590566
-0.004363926257245314
-0.004781732841592194
-0.005141715201268885
-0.0054359003471992915
-0.005658002291599943
-0.005803678260088158
-0.005870721506269243
-0.0058591760419628115
-0.0057713612919970255
-0.005611798876938202
-0.00538703930894862
-0.005105393004649463
-0.0047765770765827165
-0.004411296066633658
-0.004020780258784259
-0.003616308686797735
-0.0032087449692593346
-0.0028081126406938658
-0.0024232331413511616
-0.0020614448104310065
-0.0017284158201587969
-0.001428058397960443
-0.0011625458666796157
-0.0009324276521522271
-0.0007368302591336473
-0.000573724701528845
-0.00044023421163909835
-0.00033295201911354914
-0.0002482391975214682
-0.0001824776468280678
-0.00013226234777645424
-9.452789872100511e-05
-6.661430486396785e-05
-4.628382139502926e-05
-3.170342022785041e-05
-2.1406638970478285e-05
-1.4245606869219235e-05
-9.340524116090975e-06
-6.030926967065247e-06
-3.8311158540838035e-06
-2.391006695833391e-06
-1.4630120257664707e-06
-8.7505580856305e-07
-5.092956273476158e-07
-2.852238298724137e-07
-1.4256643465716931e-07
-6.219736449424379e-09
-2.51614105960103e-13
2.0943483077077036e-10
1.8637612857075976e-09
9.271427223736291e-09
3.4191632478130406e-08
1.037885112954864e-07
2.734389554740806e-07
6.452895056930536e-07
1.3926433206605684e-06
2.789050848321113e-06
5.239543195654926e-06
9.31004887701977e-06
1.5749980670915192e-05
2.550255187355373e-05
3.9697768192623035e-05
5.962428833480499e-05
8.667833992441658e-05
0.00012229036494871689
0.00016783270564308167
0.00022451405494131266
0.0002932682505399779
0.00037464604518270997
0.00046871861932848733
0.0005750008298661555
0.000692400641877175
0.0008191990880565583
0.0009530627069344866
0.0010910879962944145
0.001229875221834288
0.0013656271275878046
0.0014942668198026656
0.0016115683852846927
0.0017132936408803215
0.0017953287252653037
0.0018538149367580998
0.0018852691741416707
0.0018866904323269738
0.0018556499317530972
0.0017903635278571015
0.001689745984571143
0.001553447456046414
0.0013818730773471274
0.0011761869097997343
0.0009383016270475648
0.0006708552821779579
0.0003771762917697015
6.123744337882424e-05
-0.0002724006810764032
-0.0006186569259152968
-0.0009720079229380627
-0.001326578448652875
-0.001676244841690361
-0.0020147525241003307
-0.002335848337656553
-0.00263342768521517
-0.002901695302287185
-0.0031353368614288665
-0.0033296965831517656
-0.003480953731620152
-0.0035862885564343027
-0.0036440262556331872
-0.0036537463181875586
-0.0036163446286817825
-0.00353403739915939
-0.003410299572267374
-0.0032497357393535668
-0.0030578883284643893
-0.0028409948625195323
-0.0026057121274988358
-0.002358828713266279
-0.002106987558975721
-0.001856436658907446
-0.001612819895714809
-0.0013810129945821855
-0.0011650041330043277
-0.0009678165091042101
-0.0007914714128156317
-0.0006369935374166932
-0.0005044627003139361
-0.0003931152142605279
-0.00030149281446986123
-0.0002276285701743606
-0.0001692507644793752
-0.00012398093023575715
-8.950336868309488e-05
-6.369038520020426e-05
-4.467765982910411e-05
-3.0894071848015885e-05
-2.1056950527346347e-05
-1.4145908418891284e-05
-9.366803230529117e-06
-6.1137870104491645e-06
-3.933719336425148e-06
-2.4946006842161215e-06
-1.5583535888381217e-06
-9.578352552949424e-07
-5.777674588218447e-07
-3.3846629124841854e-07
-1.7730467658916428e-07
-7.859348639932238e-09
-2.705613359898853e-13
6.940855462674073e-10
5.445350778117745e-09
2.506312792479349e-08
8.73292627894928e-08
2.5344828195942034e-07
6.433819787758633e-07
1.471118954883856e-06
3.0893387968183833e-06
6.0408132666416345e-06
1.1111575559253675e-05
1.9378826308510554e-05
3.224518923683922e-05
5.145064796173767e-05
7.90544813729623e-05
0.00011738174105191694
0.00016893203704260228
0.00023625220652828896
0.0003217783325828908
0.0004276560553786259
0.0005555507540123544
0.0007064606888977366
0.0008805464630518658
0.0010769892289085817
0.0012938881146508352
0.0015282046429382144
0.0017757587828624956
0.002031278030189623
0.0022884978317905865
0.002540308976811205
0.002778945415996135
0.002996204414913222
0.003183690004783338
0.0033330703226570825
0.0034363395511798076
0.003486075676947234
0.0034756860782760527
0.0033996339246603912
0.003253639429192112
0.0030348510657334862
0.002741982886705063
0.002375415015357075
0.0019372552158807982
0.001431360158526606
0.000863315600916557
0.0002403752176317089
-0.0004286417467784245
-0.0011334934188973816
-0.0018626978403451092
-0.002603753671627744
-0.003343397074777859
-0.004067892122582326
-0.004763351231585956
-0.005416081040125657
-0.0060129478102546145
-0.0065417547936083694
-0.00699162205825637
-0.007353357057316512
-0.00761980182256439
-0.007786140266908552
-0.007850146971738605
-0.007812357444595671
-0.0076761397169090246
-0.007447648963639251
-0.007135651223926368
-0.006751209783952702
-0.006307238458134401
-0.005817939316298393
-0.0052981569079121865
-0.004762694356700878
-0.00422564583227745
-0.0036998019087924688
-0.00319617733182682
-0.002723694947591439
-0.0022890377922092195
-0.0018966585297767785
-0.0015489172007765392
-0.0012463088934256158
-0.0009877436862847162
-0.0007708496031694935
-0.0005922804005144982
-0.0004480185760624688
-0.00033366703104021413
-0.0002447207384791454
-0.0001768058027379758
-0.00012587147592190803
-8.832357732940577e-05
-6.109514195493172e-05
-4.165940121978699e-05
-2.7997953943076424e-05
-1.85407658032662e-05
-1.2093949235311745e-05
-7.767417802154691e-06
-4.909566431326065e-06
-3.051875299714094e-06
-1.8635874998246434e-06
-1.1151287620824712e-06
-6.4725268805764e-07
-3.358527462162362e-07
-1.4753904703287006e-08
8.630629687540475e-13
2.0846934065540275e-09
1.4692381945854788e-08
6.285812996947914e-08
2.0689375476715224e-07
5.725777500581835e-07
1.3946744196835556e-06
3.0735076246281186e-06
6.241370241945923e-06
1.1832254405186063e-05
2.114540754192687e-05
3.589125967512127e-05
5.8207898311593826e-05
9.063778196493324e-05
0.00013605772336435805
0.00019755993481850395
0.0002782874442505744
0.00038123266440530547
0.0005090125526073243
0.0006636370096400627
0.0008462885530114545
0.0010571307629135215
0.0012951607064059672
0.001558116875586185
0.0018424496380094494
0.0021433563449196765
0.002454878592282849
0.002770055104066335
0.003081120599930784
0.0033797389729247713
0.003657258157469997
0.00390497412584352
0.004114392346819239
0.004277476562675733
0.004386876665358722
0.004436129564034813
0.0044198290467182925
0.004333762597767636
0.0041750148319505
0.003942038575941383
0.0036346956368773953
0.0032542699417331066
0.002803456029985885
0.002286325870318332
0.0017082766951512147
0.0010759620559137372
0.00039720765194049893
-0.00031908726608717114
-0.0010630629115797872
-0.0018240271637004668
-0.0025906004089806443
-0.0033508790031673594
-0.004092619622493337
-0.004803446742409369
-0.005471085045735104
-0.006083617637894859
-0.006629769459039546
-0.007099213173326811
-0.007482892057167519
-0.007773351023556579
-0.007965063007827207
-0.008054733711958804
-0.00804156352536193
-0.007927441875978335
-0.007717047116254719
-0.007417825335842419
-0.007039825357636419
-0.006595375631714437
-0.006098602277819792
-0.005564805585496206
-0.005009732821849882
-0.004448804589818664
-0.0038963655082912187
-0.0033650330634008726
-0.0028652083408456756
-0.0024047895833308993
-0.0019890986566845257
-0.0016209990667642336
-0.001301160216358769
-0.001028411739938143
-0.0008001349475013634
-0.0006126516787472246
-0.0004615873098392847
-0.0003421976736727158
-0.0002496558259935267
-0.00017929467001321744
-0.0001267991616576133
-8.83412771281084e-05
-6.065430165087396e-05
-4.104962221118141e-05
-2.7386400823378945e-05
-1.8009367123862126e-05
-1.1670934325647947e-05
-7.4512112828212755e-06
-4.6848688253473315e-06
-2.8990493938694345e-06
-1.7625558508437041e-06
-1.0422646781896417e-06
-5.504822594291126e-07
-2.415329060013903e-08
6.998696181201784e-12
5.787033164570252e-09
3.729622914588793e-08
1.4968659160994878e-07
4.6828203054940565e-07
1.2417827601317251e-06
2.9144224660908104e-06
6.214011728585261e-06
1.2248200895993507e-05
2.259690034964096e-05
3.938563444764522e-05
6.532354279620493e-05
0.00010369126460863808
0.00015826803194633374
0.0002331934378171043
0.00033276663333185784
0.0004611930510166674
0.0006222950811152173
0.0008192075918190809
0.0010540812720390604
0.0013278163642472221
0.00163984668233715
0.001987989386534981
0.0023683704830105637
0.002775430136368894
0.0032020062697009745
0.003639490082742823
0.004078043372497279
0.0045068650415658615
0.004914492917891222
0.005289126854050133
0.005618959814208447
0.005892505044992218
0.006098909214019796
0.006228243362463717
0.00627176547221434
0.006222150258067599
0.00607368337228269
0.005822418506409889
0.005466296881130469
0.00500522934174548
0.004441141754178608
0.00377798466239515
0.003021708265074291
0.0021802037391772692
0.0012632118206355439
0.0002821993851549518
-0.0007497954091595215
-0.001818349015250738
-0.0029078691245234332
-0.004001841724443999
-0.005083108131588839
-0.006134171192188613
-0.007137529230743897
-0.008076035403768323
-0.008933278836875959
-0.009693982267417125
-0.010344408893263898
-0.010872768796714642
-0.011269612776151301
-0.01152819883027861
-0.011644814091643089
-0.01161903291307043
-0.011453890305924988
-0.011155949280104256
-0.010735241194029169
-0.01020506049926826
-0.009581599982846415
-0.008883420656277199
-0.008130762605730217
-0.0073447195985458695
-0.006546319984222508
-0.005755576606093728
-0.004990584466639447
-0.0042667513129976
-0.003596238592010645
-0.002987666884459162
-0.002446104077593429
-0.001973313814298058
-0.0015682062485748982
-0.001227411836751603
-0.0009458962367398787
-0.0007175485318880404
-0.0005356988254109022
-0.00039354566681689215
-0.0002844916086595131
-0.00020239379243507723
-0.00014173775266651564
-9.774099644221655e-05
-6.639234526194737e-05
-4.4435129528489345e-05
-2.930614100835038e-05
-1.904550103274874e-05
-1.2193379004332899e-05
-7.687278626380329e-06
-4.76920857526346e-06
-2.906522991175574e-06
-1.7223972277390987e-06
-9.106169912840303e-07
-3.98216854802571e-08
2.993488699976712e-11
1.4993748452286997e-08
8.943552687851368e-08
3.388265275834069e-07
1.0113384916659243e-06
2.5762497759802503e-06
5.836092739520019e-06
1.2053687096543754e-05
2.3078805333186902e-05
4.145427375574366e-05
7.047918547002776e-05
0.00011420841130466024
0.00017737282798393082
0.0002652129690058398
0.00038322887447566576
0.0005368591904779668
0.0007311114799978447
0.000970171994547438
0.001257026057376566
0.001593119538547083
0.0019780880050607737
0.00240957375622684
0.0028831430869504676
0.0033923077926521494
0.003928647071423488
0.00448201931748917
0.005040848300931035
0.005592465093061522
0.006123485793312352
0.006620205432786645
0.007068990048518917
0.007456651465361144
0.007770792412785936
0.008000112902279779
0.00813467201816166
0.008166102221836018
0.00808777579820591
0.00789492510775764
0.007584719824801306
0.007156305356290877
0.00661080718741043
0.00595130604564976
0.005182788576696103
0.004312077745499307
0.0033477464728685845
0.0023000171449591967
0.0011806486377120926
2.8114249180177443e-06
-0.0012190497690469102
-0.002469367404820361
-0.0037316193086992873
-0.0049885171373772064
-0.006222219316847644
-0.007414572953673708
-0.00854738904974162
-0.009602754563200328
-0.010563383303621499
-0.01141300520943662
-0.012136790171092647
-0.01272179827394638
-0.013157443316855122
-0.013435951051329338
-0.013552788273276373
-0.013507034292714049
-0.013301663060638505
-0.012943702966873505
-0.012444242570050454
-0.011818254726709157
-0.011084219168236598
-0.01026353497025857
-0.009379729949099438
-0.008457493797956668
-0.007521584762085295
-0.006595683248689524
-0.005701285470984025
-0.004856740187811257
-0.004076526247073295
-0.0033708450331883287
-0.0027455618932210467
-0.0022024814994183795
-0.001739895169076594
-0.0013533050306547732
-0.0010362183132669924
-0.0007809157959901831
-0.0005791254410125143
-0.000422565149639996
-0.000303347356817384
-0.00021425674969017665
-0.0001489200937023719
-0.00010188743857994338
-6.864161212946693e-05
-4.55512981825409e-05
-2.9783036815337785e-05
-1.9188098455037678e-05
-1.2179715583116316e-05
-7.613540485047717e-06
-4.678855924040347e-06
-2.7969985981028153e-06
-1.489020455573393e-06
-6.490418971336728e-08
1.0139665818588965e-10
3.6533617703106044e-08
2.035464239563398e-07
7.317006344291831e-07
2.090970410503604e-06
5.129726023543997e-06
1.1238814155134086e-05
2.2522226246911223e-05
4.1948354662694204e-05
7.345192792356691e-05
0.00012195778877689036
0.0001933040236009808
0.0002940527346271059
0.0004311902245522978
0.0006117323012456484
0.0008422625721161396
0.0011284401833040534
0.0014745173967396065
0.0018829064518520542
0.002353829857495608
0.0028850796998769065
0.003471901134311285
0.004107004391895684
0.004780699636803406
0.005481140792889544
0.00619465857085131
0.0069061595436217356
0.007599567096349101
0.00825828105063926
0.008865635234956535
0.009405335709433756
0.009861866250436769
0.010220851633272372
0.010469372898810132
0.0105962319385057
0.01059216526938029
0.010450008765727017
0.01016481639914872
0.009733936784885511
0.009157051633669762
0.00843618016427242
0.007575653237460786
0.006582060510461621
0.005464173349957767
0.004232845632477629
0.0029008939397109977
0.001482958045711346
-4.657993734985355e-06
-0.0015441643948346042
-0.0031164846065545636
-0.004701475915166744
-0.0062781733385093045
-0.007825058769457112
-0.009320357493725515
-0.010742364147278416
-0.012069799787478392
-0.013282200897232
-0.014360339672738745
-0.015286672715599695
-0.016045812147604713
-0.0166250091627037
-0.017014635232948636
-0.01720864088540244
-0.017204966664824854
-0.017005876279189747
-0.01661817879100467
-0.016053305861720067
-0.01532721214861896
-0.014460072465720878
-0.013475758539071708
-0.012401091281935492
-0.011264881557425093
-0.010096793172780446
-0.00892608539388377
-0.007780316212680082
-0.006684107731863338
-0.00565808558327462
-0.004718099339128292
-0.0038748066590788286
-0.0031336613176570953
-0.0024952910321839592
-0.0019561967838498877
-0.0015096641864685916
-0.0011467593639435862
-0.0008572897962458607
-0.0006306397527321541
-0.0004564295698034466
-0.0003249861712048654
-0.00022764009298804625
-0.0001568787356547715
-0.00010638875822303579
-7.101733497087447e-05
-4.667708427116671e-05
-3.021542802686729e-05
-1.9266202667532436e-05
-1.2098281527127945e-05
-7.470449513953471e-06
-4.48708799580558e-06
-2.396425114985605e-06
-1.0410559881163178e-07
2.985997530640953e-10
8.420110889454191e-08
4.4131434926178906e-07
1.5116796106799523e-06
4.147855504709412e-06
9.82087887267177e-06
2.0844325971097082e-05
4.0583578873440455e-05
7.361073931276794e-05
0.0001257655379072819
0.00020408992846370708
0.00031661788638309555
0.00047201990706215494
0.0006791206903394832
0.0009463253001002271
0.0012810010972786052
0.0016888683912266414
0.002173451673383133
0.0027356362253817814
0.0033733633769896226
0.004081483694839233
0.004851772914337307
0.005673102213196359
0.006531743722098336
0.0074117846824794465
0.008295619575131653
0.009164488610359997
0.009999032650825801
0.010779838237156645
0.011487951176694117
0.012105342470164288
0.0126153156406617
0.013002849389969161
0.013254873680509172
0.013360480698052197
0.013311074664712319
0.013100466191458174
0.012724917877820329
0.012183148299287997
0.011476301489782974
0.010607888639136772
0.009583708079865165
0.008411748811415416
0.007102081862502885
0.005666742765415806
0.004119607338827801
0.0024762618663809926
0.0007538676300365676
-0.0010289813783639795
-0.002852409871488632
-0.00469542520679125
-0.006536098278604052
-0.008351766686643938
-0.010119266194555653
-0.011815196860425608
-0.013416230127462394
-0.014899462438425038
-0.016242819394957
-0.017425511936457232
-0.018428542307614326
-0.019235252640232185
-0.019831902847048066
-0.020208257461197948
-0.020358153550791843
-0.020280014658614613
-0.019977269860371905
-0.019458633623313397
-0.018738202251387247
-0.017835327143638
-0.016774234285563516
-0.015583373307921061
-0.014294497683587112
-0.01294149953193574
-0.011559047129184138
-0.010181099092918065
-0.008839393757462632
-0.007562031407776003
-0.006372275352042789
-0.0052876896602280935
-0.004319703147845815
-0.003473641665255429
-0.0027492107054079983
-0.002141349719166696
-0.0016413322924695318
-0.001237963780254706
-0.0009187345283006986
-0.0006708183341135077
-0.00048185140853769737
-0.00034047349032185527
-0.0002366490936098839
-0.00016180794412857806
-0.00010885028017081256
-7.205952266714079e-05
-4.6957325862856695e-05
-3.0128071137313566e-05
-1.9032612589985208e-05
-1.182212873138848e-05
-7.141187550877433e-06
-3.828272985064078e-06
-1.6569856021238766e-07
7.946991951583865e-10
1.8442579594645364e-07
9.144975986527605e-07
2.995568803796547e-06
7.911876226309557e-06
1.811383835814184e-05
3.730060464885056e-05
7.064698036489907e-05
0.00012492097273238752
0.00020844607706488956
0.00033087971878875
0.0005028029199031229
0.000735141909620762
0.0010384654804189365
0.0014222186214131697
0.0018939610322777215
0.0024586779599449315
0.003118221429395717
0.0038709245438359983
0.004711412883139284
0.005630617932034115
0.006615980296381183
0.0076518168922571645
0.008719817197768508
0.009799629179304983
0.01086949519352217
0.011906901190766619
0.012889207891642876
0.013794239255445581
0.014600810604797782
0.015289185504233084
0.015841456419719704
0.016241849029961643
0.016476953716740596
0.016535890265110126
0.016410413281000336
0.016094966460559548
0.01558669381682455
0.014885415473114528
0.01399357483503889
0.01291616299035313
0.01166062516172142
0.01023675302414759
0.00865656574114002
0.0069341816932237885
0.0050856820726088315
0.0031289667884315856
0.0010836024484034686
-0.001029338470000001
-0.0031874487985237066
-0.005367170422334032
-0.007543993515019287
-0.009692674931516713
-0.01178748016869191
-0.013802453981465965
-0.015711725245588896
-0.017489851823735508
-0.01911221080336761
-0.02055543827145185
-0.021797920489014917
-0.02282033466320506
-0.0236062323031535
-0.024142651368535245
-0.024420735309818576
-0.02443632822399621
-0.024190506650080344
-0.023690001284960776
-0.022947457596676945
-0.021981484403479964
-0.020816445110442235
-0.019481958013027125
-0.018012089742819853
-0.016444248725883077
-0.014817812108273312
-0.013172548225162293
-0.01154692509606441
-0.009976420540538466
-0.008491967108628066
-0.007118669908022144
-0.005874922470722391
-0.004772012016455305
-0.003814252224847404
-0.002999616134586169
-0.002320776433035166
-0.0017664096498735962
-0.001322596500176659
-0.0009741578103476608
-0.0007058002535408284
-0.0005029973308990284
-0.0003525844003008371
-0.00024308980550345188
-0.00016485062532468032
-0.00010997099737166363
-7.217774842294219e-05
-4.6618050211611805e-05
-2.963123669024562e-05
-1.851086921060563e-05
-1.1238060250143016e-05
-6.042170214316218e-06
-2.605328645725323e-07
1.95155049877512e-09
3.8539173585767473e-07
1.8164105050644245e-06
5.706986175147541e-06
1.4540857694271503e-05
3.224449602514121e-05
6.450873652092998e-05
0.00011898824008829062
0.00020531425712482879
0.0003348770891754119
0.0005203653023405091
0.0007750831743497321
0.0011120995650691567
0.0015433048902434932
0.0020784647072112396
0.00272435763267697
0.003484073255998825
0.004356525415709412
0.005336211541429692
0.006413223612562474
0.007573493902566563
0.008799241300409733
0.01006957273240044
0.011361189117990597
0.012649145659507786
0.013907620872334414
0.01511065619181967
0.01623283686668901
0.017249893987976453
0.018139216018588464
0.01888026550344139
0.01945490246080494
0.019847620220253808
0.020045702285287587
0.02003931036437151
0.019821514284437448
0.019388274332014715
0.018738385892144625
0.017873395268319544
0.016797494417581542
0.015517401129928454
0.01404222998856789
0.012383358304874387
0.01055429014373434
0.008570520540039244
0.006449401044264276
0.00421000680796495
0.0018730045105484
-0.0005394804802974402
-0.0030040002444187896
-0.005495927214754241
-0.007989608289977801
-0.01045853556103426
-0.012875539999192586
-0.015213015303750873
-0.01744317976978787
-0.01953838436740788
-0.021471475029561652
-0.02321621618014517
-0.02474778051139258
-0.02604330663959948
-0.027082521265529104
-0.02784841568202165
-0.028327957948685294
-0.02851281213929358
-0.028400025504572483
-0.027992634362733144
-0.027300131605442007
-0.026338734685337123
-0.025131394565252117
-0.02370749466372843
-0.022102204863727663
-0.02035547873106973
-0.01851071082695983
-0.016613103238131092
-0.01470782349362376
-0.012838066748220321
-0.011043159793080511
-0.009356858718693857
-0.007805991070765797
-0.006409572841033767
-0.005178488749858947
-0.0041157635746087145
-0.0032173809368887464
-0.002473536973920612
-0.0018701643717059647
-0.0013905391277763402
-0.001016792836507429
-0.0007311929730934874
-0.0005171108115644977
-0.0003596562002803778
-0.00024600723523810516
-0.00016549334098403597
-0.00010950147984045079
-7.127117090134917e-05
-4.5629864871606135e-05
-2.8696003525494296e-05
-1.752123324084579e-05
-9.450320802795101e-06
-4.058534004374355e-07
4.479574482173571e-09
7.709312805380491e-07
3.4670504923492984e-06
1.0475579779772701e-05
2.5797563214683977e-05
5.549250342339899e-05
0.000107992227446737
0.000194196570888375
0.00032728540164770253
0.000522220490149713
0.0007949565397370754
0.0011614241519509734
0.0016363806028075012
0.0022322418519033884
0.0029580095473575926
0.0038183916210694146
0.004813188537960249
0.005936984747492456
0.007179151787022284
0.008524140289896578
0.009952015878979205
0.011439179987143078
0.012959211002198177
0.014483762664840544
0.01598346359287954
0.017428772176897145
0.018790753011321975
0.020041752933590503
0.021155965513869644
0.02210988178122396
0.02288263179194026
0.023456226349099368
0.023815710983917947
0.02394924554016328
0.023848122736937677
0.023506738285000654
0.022922523815311978
0.02209585230179917
0.021029924014202058
0.019730639451122852
0.01820646425652028
0.01646828985284334
0.014529292439241243
0.01240479209203622
0.010112112942260144
0.007670444759288413
0.005100705704035583
0.0024254054913168755
-0.00033149232045306585
-0.003144710751907527
-0.005987805008312609
-0.008833316473915019
-0.011652939161211668
-0.01441770366932347
-0.01709818479533423
-0.019664740066275995
-0.02208778749432565
-0.02433813161211402
-0.026387347050575213
-0.02820822823544384
-0.029775311800739307
-0.031065474633215198
-0.03205860470929505
-0.03273833385619332
-0.033092811327006776
-0.03311548509434962
-0.032805845016086375
-0.0321700700341344
-0.03122151232762465
-0.02998094709403474
-0.028476519487807002
-0.026743331729865188
-0.024822634019000322
-0.022760611848154418
-0.020606797586195776
-0.018412172614794275
-0.016227064112638304
-0.014098973567474964
-0.012070497824308673
-0.010177513335170198
-0.008447785872041648
-0.006900138134753089
-0.005544256116329632
-0.0043811460113464306
-0.0034041764068210266
-0.0026005692044666455
-0.0019531518641675346
-0.0014421642920891342
-0.001046929734434541
-0.0007472450674169146
-0.0005244092275327877
-0.00036187347489344154
-0.000245550009348029
-0.00016384815537398657
-0.00010751842065812533
-6.93765079922134e-05
-4.394954466588587e-05
-2.7003183043439176e-05
-1.4615291480308268e-05
-6.250496904859788e-07
9.697066403466486e-09
1.4805905019927006e-06
6.374335431313858e-06
1.8563543565610124e-05
4.426093724187059e-05
9.248229666672405e-05
0.00017526883519347226
0.0003075673068600578
0.0005067193780736102
0.0007915720381740111
0.0011812801830736277
0.0016939193006468983
0.0023450525093181075
0.0031463991689588437
0.004104733865615295
0.005221110351784357
0.006490462428071931
0.007901590282388248
0.009437502663921788
0.011076056577616275
0.01279081876843115
0.014552066926350252
0.016327851607079728
0.01808504981776861
0.01979035530884782
0.021411166305736095
0.02291634667401364
0.024276849930553897
0.025466206301563456
0.02646088092364722
0.02724051641514827
0.02778807579111715
0.02808990255818905
0.028135714330993503
0.027918544941367945
0.027434648165435963
0.026683374174684957
0.025667027833997564
0.024390716148312924
0.022862190561212088
0.021091688447203966
0.01909177699824557
0.01687720175041359
0.014464741188012461
0.011873068158817949
0.009122618198218014
0.006235464259390247
0.003235196753991214
0.00014680719962951164
-0.0030034268744219984
-0.006188058813063352
-0.009378595338875558
-0.012545629366646945
-0.01565898878895178
-0.018687907952489594
-0.021601229664365125
-0.024367646671486238
-0.026955992509727685
-0.02933559221043673
-0.031476683279468
-0.03335091623915455
-0.03493194139006208
-0.03619608383352321
-0.037123101792817574
-0.0376970136660283
-0.03790696716247361
-0.03774810993590143
-0.03722240656153276
-0.03633933338243303
-0.035116373074514776
-0.033579227387091674
-0.031761671821730404
-0.029704991649776483
-0.027456964975699733
-0.025070394256329454
-0.022601229903702804
-0.020106374160413817
-0.017641295386313836
-0.015257616998771368
-0.013000866431218061
-0.010908572918114763
-0.009008884958872608
-0.007319837212228846
-0.005849333947216316
-0.004595838274371545
-0.003549674311302354
-0.0026947776229199047
-0.0020106820567360635
-0.0014745184277477129
-0.0010628244777630342
-0.0007530192716181365
-0.0005244649065244521
-0.0003591077812666198
-0.00024174673326411787
-0.000160007597630815
-0.00010410911166155723
-6.647417453579969e-05
-4.112209744759018e-05
-2.234283603684294e-05
-9.513679740203074e-07
1.9927341417569422e-08
2.7371148052180354e-06
1.1312731312531553e-05
3.1817493660575e-05
7.356135078271442e-05
0.00014948908570911295
0.00027618399454510897
0.00047338671694315763
0.0007630244081491599
0.0011678260408747414
0.0017096658475789241
0.002407816659608813
0.0032773031123653077
0.00432752335458524
0.005561264385049822
0.006974180629210737
0.008554748287538556
0.010284657975017115
0.012139570913955748
0.01409014188718852
0.016103204910719135
0.01814302271068877
0.02017251505040853
0.02215439995201392
0.024052202473561317
0.025831105271229608
0.02745863193081067
0.028905167084976917
0.030144326441719414
0.031153195337903734
0.031912456903396946
0.032406431104819125
0.03262304455868876
0.03255374869922956
0.03219340116462717
0.031540122495295225
0.030595137657448302
0.029362609646271413
0.02784947053552764
0.02606525381952834
0.024021930700671306
0.021733752056601847
0.01921709711647174
0.016490329329740122
0.013573659474075324
0.010489015679343513
0.0072599197072045684
0.003911368489966179
0.0004697195698464754
-0.003037421337511938
-0.006581312933258957
-0.010132193975196347
-0.013659405629140427
-0.01713152513568406
-0.020516516530976338
-0.023781905481013183
-0.026894986750288605
-0.02982307432302971
-0.03253380554401528
-0.034995511562303724
-0.037177666451397924
-0.039051426146275436
-0.040590265213929035
-0.0417707138915594
-0.04257318932877976
-0.04298290336468653
-0.042990814708013365
-0.04259457693593393
-0.04179941688679051
-0.0406188631335803
-0.039075234190246784
-0.0371997940020264
-0.0350324907927096
-0.032621216122057234
-0.030020554042329686
-0.027290033557451673
-0.02449194728062668
-0.021688849864341202
-0.01894089524314145
-0.01630320571474463
-0.013823482687318757
-0.011540063978551025
-0.0094806031259475
-0.007661492287350648
-0.006088075873265282
-0.004755615562094106
-0.003650881544033849
-0.0027541746586981553
-0.002041543126658346
-0.0014869540366391982
-0.0010642135465586532
-0.0007484920721636486
-0.0005173865011263236
-0.0003515237404773763
-0.000234763943715052
-0.00015408522701863017
-9.920290934328367e-05
-6.181358081797286e-05
-3.37235364962314e-05
-1.4294525846369273e-06
3.907432204268598e-08
4.882143716352016e-06
1.9418523900614236e-05
5.2838959318010166e-05
0.00011862127335347987
0.00023471391039273543
0.00042314943271793104
0.0007090322235649374
0.001118972906484306
0.0016791355490849188
0.0024131238633691874
0.0033399505300272074
0.0044723108561584395
0.00581532766145974
0.007365862437500613
0.009112412927461254
0.011035551432800281
0.013108809338119299
0.015299884944833144
0.017572043099975055
0.019885582843780746
0.022199268436414076
0.0244716444400934
0.026662182416034214
0.02873223174943908
0.030645767923286556
0.03236994719535193
0.03387548701294269
0.03513689719367206
0.036132588832245675
0.03684488710400429
0.03725997161390857
0.03736776451754929
0.03716178295168462
0.03663896878683771
0.03579950560686922
0.03464663024274384