# vtk DataFile Version 4.1 
COMMENT
ASCII
DATASET STRUCTURED_POINTS 
DIMENSIONS 100 100 1 
ORIGIN 0 0 0
SPACING 0.12693303650867893 0.12693303650867893 0 
POINT_DATA 10000
SCALARS U double 1
LOOKUP_TABLE default
0.0
0.0
0.0
0.0
0.0
0.0
0.0
0.0
0.0
0.0
0.0
0.0
0.0
0.0
0.0
0.0
0.0
0.0
0.0
0.0
0.0
0.0
0.0
0.0
0.0
0.0
0.0
0.0
0.0
0.0
0.0
0.0
0.0
0.0
0.0
0.0
0.0
0.0
0.0
0.0
0.0
0.0
0.0
0.0
0.0
0.0
0.0
0.0
0.0
0.0
0.0
0.0
0.0
0.0
0.0
0.0
0.0
0.0
0.0
0.0
0.0
0.0
0.0
0.0
0.0
0.0
0.0
0.0
0.0
0.0
0.0
0.0
0.0
0.0
0.0
0.0
0.0
0.0
0.0
0.0
0.0
0.0
0.0
0.0
0.0
0.0
0.0
0.0
0.0
0.0
0.0
0.0
0.0
0.0
0.0
0.0
0.0
0.0
0.0
0.0
1.9272009371448903e-13
-9.45263839240841e-11
-1.058985308556472e-09
-6.063791680306056e-09
-2.491535689394012e-08
-8.288821322422117e-08
-2.3700736843728395e-07
-6.03204051327133e-07
-1.397884022283847e-06
-2.996880614485738e-06
-6.01337436245011e-06
-1.1394154392301029e-05
-2.0530755109052558e-05
-3.5378868694869e-05
-5.8576464156830304e-05
-9.354872391549511e-05
-0.00014458666923932679
-0.00021688648015798226
-0.0003165381282986949
-0.0004504549294113317
-0.0006262396944867665
-0.0008519878830022277
-0.00113603303590596
-0.0014866442878888957
-0.0019116894938705916
-0.002418280135062527
-0.0030124155199720034
-0.0036986438369547418
-0.004479756451018311
-0.005356529674753643
-0.006327525353525702
-0.007388958287950009
-0.00853463506489263
-0.009755965540268682
-0.011042045218743924
-0.012379804251143017
-0.013754216800823805
-0.015148563138175497
-0.016544735981498283
-0.017923582249206652
-0.01926527143374815
-0.0205496821493385
-0.021756798937473735
-0.02286711203477789
-0.02386201342685248
-0.024724183055322067
-0.025437959458926972
-0.025989689381515985
-0.026368050962552726
-0.02656434505624958
-0.026572749043457654
-0.02639052726335121
-0.02601819196501724
-0.02545960852061493
-0.024722038584971743
-0.02381611492292842
-0.02275574170070055
-0.02155791407063453
-0.02024245082348665
-0.018831633828505837
-0.017349748283201363
-0.01582251917393372
-0.014276442893340189
-0.0127380199228437
-0.011232905825688085
-0.00978501350277232
-0.00841561808965412
-0.0071425333681596264
-0.0059794398294416105
-0.004935443875679552
-0.004014931050488716
-0.0032177434030506444
-0.002539666964363342
-0.0019731693190573807
-0.0015082909846023307
-0.0011335775779303568
-0.0008369468403467974
-0.0006064123750255186
-0.0004306249463374403
-0.0002992302716144252
-0.00020306934771853734
-0.00013425904040726154
-8.618883908351467e-05
-5.346053164417629e-05
-3.1787932067342265e-05
-1.7868057324450812e-05
-9.233950584679386e-06
-4.100532748548761e-06
-1.2155500849283081e-06
2.7389359830684775e-07
9.32523794677402e-07
1.1237449614725678e-06
1.0739894867447795e-06
9.186038426129077e-07
7.337899651514862e-07
5.584534864386486e-07
4.0860707154243e-07
2.85211463672145e-07
1.7198509226799924e-07
7.50318228627384e-09
3.929812676732286e-13
-3.271785566968709e-10
-2.953563934472372e-09
-1.4899459978313597e-08
-5.574257318276005e-08
-1.7176104974692688e-07
-4.5966783978308904e-07
-1.1027199711852785e-06
-2.4210795328223964e-06
-4.936594225021228e-06
-9.449780408841929e-06
-1.7124045681282505e-05
-2.9569536394049516e-05
-4.8916944820244764e-05
-7.787061209204443e-05
-0.00011973061481365315
-0.00017837530539281372
-0.00025819883145095015
-0.0003640021229016747
-0.000500840200741801
-0.0006738328724245825
-0.0008879494181862981
-0.0011477803403711236
-0.0014573104082624077
-0.0018197070309503326
-0.002237136546300925
-0.002710618574228666
-0.003239925479921259
-0.003823530590742749
-0.004458605455210773
-0.005141063415247615
-0.005865644297757402
-0.006626033245594566
-0.007415005644436192
-0.008224589732354
-0.009046238719864
-0.009871004981542114
-0.010689709970783171
-0.011493104820684967
-0.01227201800074701
-0.013017487793683953
-0.013720878653586316
-0.01437398164250287
-0.01496910007402548
-0.01549912219320467
-0.01595758317888379
-0.016338718964336536
-0.016637514340916676
-0.016849747553315076
-0.016972033143886393
-0.01700186420737215
-0.016937654553197488
-0.01677878064823618
-0.016525622762259207
-0.01617960459904418
-0.015743230964493017
-0.015220123681753288
-0.014615056794093797
-0.013933992607627808
-0.013184119548494928
-0.012373890225127773
-0.011513052745292494
-0.010612660148980364
-0.00968503290243812
-0.008743640450324346
-0.007802863956341039
-0.006877608167507295
-0.005982749136687734
-0.005132436278993978
-0.004339306895236078
-0.0036137088526186534
-0.002963049825934072
-0.0023913882342740723
-0.0018993472132211985
-0.0014843740809458634
-0.001141298944977443
-0.0008630876171425413
-0.0006416537234206769
-0.0004686010884579177
-0.00033580540474532737
-0.0002357983145770479
-0.00016196785378559355
-0.00010862150418047504
-7.096644015834365e-05
-4.5050739823481724e-05
-2.7690188932312548e-05
-1.638855992177813e-05
-9.250840536677521e-06
-4.8887582026182785e-06
-2.3220546488286693e-06
-8.826553780295391e-07
-1.294778345024669e-07
2.2086326497258736e-07
3.460347735907148e-07
3.5449707965383394e-07
3.1003047794378276e-07
2.4770393718136195e-07
1.832853028807321e-07
1.1457107047059302e-07
5.159760996687795e-09
4.1245504322993635e-13
-1.058643731670808e-09
-8.40729467504079e-09
-3.9202508113058694e-08
-1.3850890029236054e-07
-4.079822873422056e-07
-1.0520818208644892e-06
-2.4459810747282e-06
-5.227519007962536e-06
-1.0412554745570045e-05
-1.952927120467453e-05
-3.476285447831455e-05
-5.9098237519616275e-05
-9.644591596975987e-05
-0.00015173475934194853
-0.00023095654458919914
-0.0003411496256698005
-0.0004903134278525851
-0.0006872507995185886
-0.0009413410200640553
-0.0012622517853199194
-0.0016596031881481509
-0.002142600152050794
-0.0027196517223966954
-0.0033979960315826782
-0.00418334876010174
-0.005079590770830426
-0.006088507629161252
-0.007209590290694079
-0.00843990267539848
-0.00977401843634811
-0.011204026187836136
-0.01271959992320388
-0.014308129397783838
-0.015954903887294314
-0.017643341920346365
-0.019355259256641468
-0.02107116745231772
-0.02277059572553449
-0.024432429414501463
-0.026035259019133516
-0.02755773455853655
-0.02897892069269707
-0.03027864869160372
-0.031437861841065805
-0.03243895121118282
-0.03326607884521335
-0.03390548532171754
-0.034345778273657666
-0.03457819779449508
-0.0345968537185992
-0.034398928556904046
-0.03398483847636385
-0.033358343291845685
-0.03252659526016389
-0.031500115923321886
-0.030292690846745126
-0.028921174376001748
-0.027405200903534224
-0.02576680564186511
-0.024029965953944753
-0.022220082482549093
-0.020363425462503713
-0.018486573180112292
-0.016615864625453867
-0.014776876781807417
-0.012993921295819895
-0.011289541017512315
-0.009683981402243358
-0.008194621419771068
-0.0068353754268579755
-0.005616116315102695
-0.004542208668608998
-0.0036142621606500103
-0.002828205856601657
-0.0021757387301424226
-0.0016451393672000623
-0.0012223394909931982
-0.0008921073424080567
-0.0006391681942931961
-0.0004491161591395201
-0.0003090329545761355
-0.00020780266278150932
-0.0001361723487457243
-8.664064669671549e-05
-5.325754429864911e-05
-3.139791143397733e-05
-1.754341794257668e-05
-9.084748435717908e-06
-4.144113445574116e-06
-1.4157931892143159e-06
-2.4931007135656623e-08
5.927904925322853e-07
7.879769118418651e-07
7.704374768520582e-07
6.605065676737133e-07
5.226971492458018e-07
3.847830234463264e-07
2.395361729079127e-07
1.0512362502634522e-08
-1.2812538519713952e-12
-3.0942043099460694e-09
-2.2030824996288094e-08
-9.534948462478643e-08
-3.1784039480072485e-07
-8.917432398708259e-07
-2.2041187187340787e-06
-4.93347080915618e-06
-1.0184680341613263e-05
-1.9646099142011744e-05
-3.5757057648953824e-05
-6.186907946829157e-05
-0.00010238078850928199
-0.0001628256221232331
-0.0002498934096285887
-0.0003713715417786335
-0.000535998288944793
-0.0007532289276468489
-0.0010329236385724508
-0.001384973591287661
-0.0018188873573868288
-0.002343363214276117
-0.002965873780817547
-0.003692287864155514
-0.004526550771995372
-0.005470439222505521
-0.006523401019518555
-0.007682483503669668
-0.008942349010908532
-0.010295370609769065
-0.01173179753673834
-0.013239977141225583
-0.014806618788964348
-0.01641708494949455
-0.018055695430724033
-0.01970603220233034
-0.021351234239595264
-0.022974274101360413
-0.024558210338556773
-0.02608641215767225
-0.027542754920112756
-0.028911786964676427
-0.030178869849942752
-0.03133029540585675
-0.03235338395706196
-0.03323656874308842
-0.03396947192398495
-0.03454297763237386
-0.0349493073122596
-0.03518210205405622
-0.03523651575795162
-0.035109321677919365
-0.034799033146392454
-0.03430603698730342
-0.033632735260818857
-0.0327836876029068
-0.03176574274086001
-0.03058814422340698
-0.02926259270468259
-0.027803246179800945
-0.02622664132223122
-0.024551524128819537
-0.02279858626810218
-0.020990113515495585
-0.019149561877195943
-0.017301082177466013
-0.015469012237719112
-0.013677346677660445
-0.011949180708452507
-0.010306112656561213
-0.008767588876811767
-0.0073501909646486825
-0.006066899446863548
-0.0049264121630391245
-0.003932633005484961
-0.0030844585215261764
-0.0023759627476173453
-0.0017970145703269803
-0.001334273042096068
-0.0009724220713922424
-0.0006954552036469767
-0.0004878209979048584
-0.0003352882582308201
-0.00022546885509735595
-0.00014801603007691668
-9.457326594631069e-05
-5.857109215821922e-05
-3.495971951890028e-05
-1.993767325657926e-05
-1.0706327144647262e-05
-5.258309079011065e-06
-2.197392756000569e-06
-5.858769215715325e-07
1.825386357281817e-07
4.847570388617284e-07
5.457585778109104e-07
4.933829926967703e-07
3.92413747799814e-07
2.551351617205766e-07
1.1280088017857522e-08
-1.0085260436598556e-11
-8.339951655684945e-09
-5.4231906569925545e-08
-2.1997841434646504e-07
-6.964298533360388e-07
-1.8710289319961963e-06
-4.453547961369359e-06
-9.64001016009471e-06
-1.9308678258437477e-05
-3.623465978201799e-05
-6.430298042322584e-05
-0.00010869529659387789
-0.00017602383329492872
-0.00027438817514723485
-0.0004133360833923926
-0.0006037178234402509
-0.0008574333844561799
-0.0011870820704143977
-0.001605532910736675
-0.002125441117171292
-0.0027587397486494285
-0.003516136639385147
-0.004406644718813595
-0.005437169648940208
-0.0066121729623826574
-0.007933422399882161
-0.009399834661552704
-0.011007409906449803
-0.012749252482328954
-0.014615668770826318
-0.016594330746017225
-0.01867049277916095
-0.020827249195387917
-0.023045820862268404
-0.02530586041433286
-0.02758576735546862
-0.029863006030994236
-0.03211442116588877
-0.034316547214534567
-0.03644590909282773
-0.0384793129338888
-0.04039412631917474
-0.042168548000920146
-0.043781867472906966
-0.04521471489136353
-0.04644930182182444
-0.047469653112240134
-0.04826182988325241
-0.048814143193663236
-0.049117357388581806
-0.04916488147197786
-0.04895294606376888
-0.04848076259956432
-0.04775066039858524
-0.046768196046198016
-0.04554222819740083
-0.044084949415265064
-0.042411865090766374
-0.040541708061007285
-0.0384962766758562
-0.03630018443198461
-0.03398051175523128
-0.031566355870400145
-0.029088283272117946
-0.026577700407927143
-0.024066169706224046
-0.021584706614841645
-0.019163095013661268
-0.016829250614950178
-0.01460864535896727
-0.012523785406076085
-0.010593720063757379
-0.008833558684099125
-0.007253993090735545
-0.005860861755745868
-0.004654835856062889
-0.003631336686780144
-0.002780789886820204
-0.0020892761756531935
-0.0015395590736939362
-0.0011123812632021376
-0.0007878535286444924
-0.0005467381532136901
-0.000371459877143308
-0.0002467496131622386
-0.00015991262936658617
-0.00010078536723341144
-6.148457349150488e-05
-3.6055493687682816e-05
-2.0102478259741816e-05
-1.0451613438227773e-05
-4.865071028478957e-06
-1.8080637777244828e-06
-2.616963837323871e-07
4.255098185801593e-07
6.526944215729129e-07
6.518063235686291e-07
5.44155785522937e-07
3.625836220792503e-07
1.5894694141775117e-08
-4.1805661436419785e-11
-2.0943179824982034e-08
-1.2592453453660658e-07
-4.817693280177747e-07
-1.454212477460857e-06
-3.750669228050024e-06
-8.61200771381753e-06
-1.804713691519192e-05
-3.509439210238526e-05
-6.408446426347126e-05
-0.00011087293220699476
-0.00018300790332837562
-0.00028980068287480623
-0.0004422746705621784
-0.0006529788393199465
-0.0009356655441485175
-0.0013048460977451843
-0.0017752496607611027
-0.002361220035959475
-0.0030760900141628823
-0.003931573728722456
-0.004937214359868033
-0.00609991826846638
-0.007423598275668908
-0.0089089394650912
-0.010553291610736747
-0.012350683975091906
-0.01429195136981738
-0.01636495534951803
-0.01855488129643503
-0.02084459083467529
-0.023215009235424928
-0.025645528912291087
-0.028114412407340465
-0.030599181098481823
-0.033076978925402734
-0.03552490349957366
-0.03792029986087934
-0.04024101475484968
-0.04246561156651115
-0.04457354793606545
-0.0465453196035048
-0.04836257520789458
-0.05000820763537481
-0.051466428101894966
-0.05272282950079385
-0.05376444565954979
-0.05457981303832548
-0.05515904105308431
-0.05549389658936643
-0.05557790734578825
-0.05540648735497577
-0.05497708631636679
-0.054289362188378265
-0.053345373792484746
-0.05214978697534289
-0.05071008420142186
-0.04903676342314523
-0.04714350792140356
-0.04504730490987374
-0.0427684876581162
-0.04033067458281859
-0.0377605802860335
-0.03508767902434297
-0.03234371134646544
-0.029562039455335868
-0.02677687450966041
-0.02402241608500995
-0.021331955631556862
-0.01873699752075989
-0.01626644115321706
-0.013945848062783438
-0.011796796465412216
-0.009836312766467523
-0.008076374234252755
-0.006523501670464726
-0.005178497525476313
-0.004036416431938573
-0.0030868617219476993
-0.002314670075033331
-0.001700978782998131
-0.0012245847420833394
-0.0008634302348384441
-0.0005960152894516638
-0.00040255357562511934
-0.0002657522585743542
-0.00017118314054900984
-0.00010729373300346847
-6.515966490277737e-05
-3.8095183530262494e-05
-2.1222273047620566e-05
-1.1065846175559307e-05
-5.208103187016453e-06
-2.009714427187547e-06
-3.9193974798480835e-07
3.3023541587023034e-07
5.725139760426042e-07
5.674538808834589e-07
4.0682193963024e-07
1.7849627914399203e-08
-1.370417344288761e-10
-4.938791621226905e-08
-2.7716978201446726e-07
-1.0055464585843222e-06
-2.9042972902910223e-06
-7.210326035169436e-06
-1.6004396391886347e-05
-3.252733285143156e-05
-6.150546658303348e-05
-0.00010944575020635752
-0.00018485695911384323
-0.00029835598129997616
-0.0004626273002324874
-0.0006922180650217043
-0.0010031683674120494
-0.0014124938415549656
-0.0019375529302068039
-0.0025953421483225136
-0.003401768290280422
-0.004370946552530958
-0.005514568574855307
-0.0068413756272528055
-0.008356761085925682
-0.010062514492880372
-0.011956708242178132
-0.014033718320023394
-0.01628436319388108
-0.01869614016080884
-0.02125353616142506
-0.023938389934344134
-0.026730283968898302
-0.029606947493729205
-0.032544655209135326
-0.03551861018787621
-0.03850330297984378
-0.04147284220999033
-0.04440125470384829
-0.0472627553437353
-0.05003198845125646
-0.05268424355549397
-0.05519564901815894
-0.05754334723761988
-0.05970565513551913
-0.06166221342827385
-0.06339412787444627
-0.06488410532576003
-0.06611658703562456
-0.06707788131838427
-0.0677562973116625
-0.0681422812620546
-0.06822855640197495
-0.06801026706536771
-0.06748512713716796
-0.06665357216499589
-0.06551891338964247
-0.06408749047867184
-0.06236881779021321
-0.0603757164965567
-0.05812442186279871
-0.055634651509619035
-0.05292961685995885
-0.050035956685334136
-0.04698356954517761
-0.043805322083581885
-0.040536613924971154
-0.03721478843411009
-0.03387839226027892
-0.030566304316203517
-0.027316773699795394
-0.02416642140944929
-0.021149267398275426
-0.01829583905255491
-0.015632400004365898
-0.013180314944304581
-0.010955546590510498
-0.008968275393853463
-0.007222646168501309
-0.005716674576381283
-0.004442376401093386
-0.0033861949670945025
-0.002529781824961163
-0.0018511303466136524
-0.0013259848091069525
-0.0009293747588479108
-0.0006370833953242836
-0.000426866212344323
-0.00027929073675038007
-0.0001781510551798923
-0.00011049436345010567
-6.635659397280162e-05
-3.8328027715082565e-05
-2.105998954794507e-05
-1.0792930493297699e-05
-4.949967004974961e-06
-1.810132269660353e-06
-2.574334131716865e-07
4.050455877459136e-07
5.846043427767455e-07
4.69153002132694e-07
2.0500819479804008e-08
-3.900878072303003e-10
-1.1002935615389517e-07
-5.805603804227457e-07
-2.0059446647157064e-06
-5.560322150733984e-06
-1.3316893339318584e-05
-2.862333839503394e-05
-5.6498068826249584e-05
-0.00010399856656681449
-0.0001805066052747237
-0.00029787738776655475
-0.0004704106660871237
-0.000714620046026361
-0.0010487989038444742
-0.0014924040454860309
-0.0020652979677235135
-0.002786904679847347
-0.003675341026833474
-0.004746585093153281
-0.006013736433827533
-0.00748641122429497
-0.00917030097281347
-0.011066908235323053
-0.0131734585645407
-0.015482975998071743
-0.017984500496870382
-0.020663420132041033
-0.023501888317603102
-0.026479296543230578
-0.02957277525822393
-0.03275769913446853
-0.036008177271622234
-0.03929751347969277
-0.04259862618522523
-0.045884421489778754
-0.04912811631296571
-0.05230351132270311
-0.05538521550877681
-0.05834882585461874
-0.061171066693189904
-0.06382989409064803
-0.06630457107640791
-0.06857571980868783
-0.07062535689302993
-0.07243691810212555
-0.07399527870532605
-0.07528677551502648
-0.07629923658815782
-0.07702202426256688
-0.07744609682410106
-0.07756409354141035
-0.07737044701058904
-0.07686152565014415
-0.07603580770237324
-0.07489408615523832
-0.07343970153499041
-0.07167879649306663
-0.06962058251916285
-0.06727760501233888
-0.06466598847266182
-0.061805638991204316
-0.058720376928401985
-0.05543796930408541
-0.05199002986100912
-0.048411756151142515
-0.04474147861391514
-0.0410200075738586
-0.037289780764928386
-0.03359383537805593
-0.02997465180028996
-0.026472936385394014
-0.02312642214330081
-0.019968764695579563
-0.017028595317185317
-0.0143287676721001
-0.011885809009634677
-0.009709570783216985
-0.007803075083939326
-0.006162570973376691
-0.0047778381208856135
-0.003632787324975755
-0.002706393378466011
-0.001973950338597776
-0.0014085724185102335
-0.0009827976585892388
-0.0006701118425262503
-0.0004462142252823948
-0.00028989572459140866
-0.00018347867971044181
-0.00011284979441151415
-6.718034380648395e-05
-3.8456364729786946e-05
-2.0936321366414444e-05
-1.062538075709408e-05
-4.818839938690894e-06
-1.7350305209750373e-06
-2.3721203967382895e-07
3.6340237349397656e-07
4.256079323862094e-07
1.8629552765753977e-08
-1.0024452778982578e-09
-2.3270941556205548e-07
-1.1611485544188999e-06
-3.834935314254815e-06
-1.0228276215517168e-05
-2.367825189187318e-05
-4.936128751133262e-05
-9.474954058194967e-05
-0.00016997825491484885
-0.00028805629325063506
-0.00046486503713639006
-0.000718913547542406
-0.0010708463122967597
-0.0015427291629688102
-0.0021571643161825867
-0.002936303374037445
-0.0039008355323974816
-0.005069026974743573
-0.006455877765331397
-0.008072446826815932
-0.00992537659434179
-0.012016629427630258
-0.014343430131308914
-0.016898394595032517
-0.01966981447966716
-0.02264206221363867
-0.025796078949471005
-0.029109909829362988
-0.03255925500841395
-0.03611801045160953
-0.03975877871504925
-0.04345333606323777
-0.04717304787198619
-0.05088922901645907
-0.05457344970483565
-0.05819778997681296
-0.061735047920166
-0.06515890770054611
-0.06844407390837765
-0.07156637866461027
-0.07450286754543856
-0.07723186981612658
-0.07973305781309777
-0.0819874996645798
-0.08397770895386802
-0.08568769444631513
-0.08710301264461055
-0.08821082571427565
-0.08899996722486728
-0.08946101815847347
-0.08958639570387285
-0.08937045741931782
-0.08880962332243973
-0.08790251823984614
-0.08665013618498431
-0.08505602747621711
-0.08312650759809585
-0.08087088430348403
-0.07830169605324763
-0.07543495057621052
-0.07229034721308346
-0.06889146106710972
-0.06526586133252255
-0.06144513130032274
-0.057464754551070814
-0.05336383212104679
-0.049184600488389095
-0.04497173137626283
-0.040771412146234615
-0.03663022903448532
-0.032593901737049014
-0.028705941937689303
-0.02500632426518735
-0.02153026067196521
-0.018307156402957114
-0.015359800707956495
-0.012703816391781867
-0.010347369690415265
-0.008291133952432354
-0.006528508291912691
-0.005046107830388869
-0.003824550996209852
-0.0028395575684793434
-0.002063332981660577
-0.0014661571896039665
-0.0010180391129369234
-0.0006902632796779983
-0.00045666015044773186
-0.0002944779231151191
-0.00018480795316967556
-0.00011259532375132097
-6.632776520069803e-05
-3.752616440581174e-05
-2.0157056702027632e-05
-1.0061044599682045e-05
-4.45512106485997e-06
-1.5343467725512079e-06
-1.7752972129270615e-07
2.46942153036958e-07
1.092424297850546e-08
-2.374734392232449e-09
-4.6912346064295006e-07
-2.2240976090101057e-06
-7.043136515151009e-06
-1.811545012703656e-05
-4.060663232492569e-05
-8.221812010908586e-05
-0.00015365670552921156
-0.0002689275874292299
-0.00044537890073872413
-0.0007034534902364688
-0.0010661397001867523
-0.00155815054308784
-0.002204893384324023
-0.003031315313388046
-0.004060720000598926
-0.005313649814880229
-0.006806914122711147
-0.008552824200586374
-0.010558670853366047
-0.012826456270955413
-0.015352869825367224
-0.01812948038488228
-0.021143106243057534
-0.02437631795345197
-0.02780802856341693
-0.03141412886824225
-0.03516813110834228
-0.039041791790688785
-0.04300569198971042
-0.04702976077934919
-0.05108373384143817
-0.05513754450722381
-0.059161648441616886
-0.0631272859432969
-0.06700668757009758
-0.0707732297152671
-0.07440154707187978
-0.07786760882901807
-0.08114876511226482
-0.08422376974306492
-0.08707278493971589
-0.08967737317661398
-0.09202048108979978
-0.09408642007648932
-0.09586084807974428
-0.09733075696205204
-0.09848446983197837
-0.09931165266982975
-0.09980334457031961
-0.09995201084530021
-0.09975162306168296
-0.09919776977045335
-0.09828780113798113
-0.09702100982787766
-0.09539884918902043
-0.09342518795726906
-0.09110659814584554
-0.08845266946970312
-0.08547633945570826
-0.08219422335167083
-0.0786269222153332
-0.07479928148005716
-0.07074056644319421
-0.06648451638711865
-0.06206923661869301
-0.057536889066242054
-0.052933148762872244
-0.04830640685938409
-0.04370672119773469
-0.03918454186844351
-0.03478926845679266
-0.030567722696682134
-0.026562638705730824
-0.02281127731814227
-0.019344258824366772
-0.01618468218956262
-0.013347566131368152
-0.010839618551044957
-0.008659324322487548
-0.006797339783961941
-0.005237189598736123
-0.003956265851899741
-0.0029271178988771788
-0.0021189889844309825
-0.0014995078144472253
-0.0010363962885628264
-0.0006990284250934839
-0.00045968456174007457
-0.00029439102076319744
-0.00018330652171959536
-0.00011069186534191884
-6.455790467326174e-05
-3.611556150805389e-05
-1.914915917752401e-05
-9.409100337837263e-06
-4.085273941421146e-06
-1.3903378107002864e-06
-2.507789325089347e-07
-1.0354262191539589e-08
-5.253876006652504e-09
-9.045288355231861e-07
-4.090664114743954e-06
-1.2453863580643415e-05
-3.0951750632704955e-05
-6.72842084797216e-05
-0.00013248860528005697
-0.00024134314360207515
-0.00041248365792899384
-0.0006681725274221064
-0.001033703536804839
-0.0015364747161740943
-0.002204803688588009
-0.003066590065962541
-0.004147943253229317
-0.005471891279575542
-0.0070572694477147304
-0.008917861022769804
-0.011061830961153811
-0.013491462628496088
-0.01620318040309617
-0.019187820470855224
-0.022431099040034742
-0.0259142214749175
-0.029614576422523527
-0.033506464339937016
-0.037561818217353
-0.04175088413691091
-0.04604283929090357
-0.05040633424398834
-0.054809953966278774
-0.05922259821331206
-0.06361378616258634
-0.06795389298636477
-0.07221432749949819
-0.07636766046277876
-0.08038771283740735
-0.08424961253382528
-0.0879298271919131
-0.091406179432826
-0.09465784995183331
-0.09766537285262236
-0.10041062680132572
-0.10287682492508379
-0.1050485059022471
-0.1069115283873545
-0.10845307077665926
-0.10966163833900477
-0.11052707989872308
-0.11104061654313957
-0.11119488520933744
-0.11098400044096582
-0.11040363803371582
-0.10945114461878952
-0.10812567734690524
-0.10642837757697629
-0.1043625816583605
-0.10193407031741956
-0.09915135561116356
-0.09602600071705573
-0.0925729628877211
-0.08881094374127509
-0.08476272390342292
-0.08045545134341092
-0.07592084534192735
-0.0711952720320915
-0.06631964433810801
-0.06133910061322076
-0.05630242406805289
-0.05126118048833349
-0.04626857506253845
-0.04137805899420104
-0.03664174943116543
-0.032108756516790404
-0.027823532385369193
-0.023824362826264378
-0.0201421104129098
-0.016799290347323494
-0.01380952434971033
-0.01117738367044382
-0.008898608492147164
-0.006960680920491945
-0.005343728209047955
-0.004021731798215317
-0.0029640055655564108
-0.0021368785506559024
-0.0015054782913939743
-0.0010354746517307102
-0.00069462753743507
-0.0004539970612393353
-0.00028872224847206426
-0.00017834283931749393
-0.00010670919085696804
-6.157899618356359e-05
-3.4025082624700146e-05
-1.777497281206304e-05
-8.57799875355606e-06
-3.658876854140108e-06
-1.2561249913551553e-06
-5.314891136660891e-08
-1.09534023430261e-08
-1.6730960591632198e-06
-7.241748071559156e-06
-2.1245043658156708e-05
-5.1109376153050454e-05
-0.0001079002484447679
-0.0002068695961373235
-0.0003676798558179412
-0.0006142192885941455
-0.0009739789562055414
-0.0014770232628085514
-0.0021546412300774394
-0.0030378052394517325
-0.0041555825881606345
-0.0055336421946937725
-0.007192977413399082
-0.009148932005343068
-0.01141057667765526
-0.013980444634518373
-0.016854601251350076
-0.02002299836101165
-0.023470048875773347
-0.027175352098727474
-0.03111450252104678
-0.035259922985763845
-0.03958167453203152
-0.04404820794826232
-0.048627034422478385
-0.053285303561289445
-0.057990285830132375
-0.0627097629407459
-0.06741233398221287
-0.07206764746270505
-0.0766465703026098
-0.08112130461923199
-0.08546546225919686
-0.08965410579356003
-0.09366376334212176
-0.09747242331079954
-0.10105951401467532
-0.10440587227045135
-0.10749370438618065
-0.11030654253717134
-0.11282919926365739
-0.11504772272087808
-0.11694935531897166
-0.11852249847673474
-0.1197566863551193
-0.12064257161583414
-0.12117192645597735
-0.12133766239208392
-0.12113387249467279
-0.12055589998630671
-0.11960043727365333
-0.11826565952149681
-0.11655139669297655
-0.11445934743254958
-0.11199333707086351
-0.10915962016434273
-0.10596722511428935
-0.10242833433229949
-0.09855868800030658
-0.09437799273152621
-0.08991030861636747
-0.08518437978445552
-0.08023386565091382
-0.07509742376359724
-0.06981859231402486
-0.06444542282456553
-0.05902982310617109
-0.05362658856309586
-0.048292126377164596
-0.0430829102624417
-0.03805373932943893
-0.03325590709467281
-0.02873540883673323
-0.02453132135730966
-0.02067447605822326
-0.01718651633145203
-0.014079390742211697
-0.011355294262125757
-0.009007039662681194
-0.0070188239030982095
-0.005367346922730898
-0.004023234434570887
-0.0029527033104267053
-0.0021193841167579113
-0.001486184795281576
-0.0010170542111689457
-0.0006784982432768037
-0.0004407233475406585
-0.0002783322710848785
-0.00017056264371342897
-0.00010112430317903903
-5.773904565835441e-05
-3.150745382264608e-05
-1.6220441127865492e-05
-7.698142293805473e-06
-3.1399851956349263e-06
-1.3289349403226062e-07
-2.1662075874191576e-08
-2.976693337315554e-06
-1.236649123855645e-05
-3.503071458702313e-05
-8.170309192107854e-05
-0.00016773109125040817
-0.0003134525079283443
-0.0005440988900934357
-0.0008891747040082392
-0.0013813392077294336
-0.002054890021296285
-0.0029440001648590544
-0.004080886236417524
-0.005494083079562322
-0.007206973872322233
-0.009236681760689817
-0.011593379043595498
-0.014280020964399403
-0.01729246987953936
-0.020619945846365218
-0.024245722783838266
-0.028147984461692237
-0.032300759385460426
-0.03667486519352427
-0.041238808432418644
-0.04595960187731597
-0.0508034768993845
-0.05573648144408939
-0.060724964326566315
-0.06573595365521877
-0.07073744151926105
-0.07569858909550367
-0.08058986660858969
-0.08538314167423419
-0.09005172795543673
-0.09457040415635652
-0.0989154114497742
-0.10306443566483459
-0.10699657905269917
-0.11069232523707594
-0.11413350004010668
-0.11730323022228933
-0.12018590174697817
-0.1227671189329699
-0.12503366575498198
-0.12697347056221697
-0.12857557559000762
-0.1298301128283527
-0.13072828808077394
-0.1312623753984566
-0.13142572450923462
-0.13121278437457132
-0.1306191465843642
-0.12964161290356652
-0.12827829185207823
-0.12652872962840025
-0.12439408083102681
-0.12187732409303517
-0.11898352668198779
-0.11572016005391843
-0.11209746500857024
-0.1081288602390004
-0.10383138157868997
-0.09922613119286885
-0.0943387066914819
-0.08919957038244664
-0.08384430978991718
-0.0783137337272793
-0.0726537455941958
-0.06691493927127959
-0.061151874906250375
-0.055422013146768714
-0.049784316673616553
-0.044297564880516366
-0.03901846657423598
-0.03399969003577209
-0.029287952409048346
-0.0249223152074614
-0.020932817312719492
-0.01733954373096928
-0.014152184893089111
-0.011370097298730219
-0.008982840536406642
-0.006971142243358132
-0.005308229303107092
-0.003961453815647302
-0.0028941289978011053
-0.0020674703868609956
-0.0014425157052293184
-0.0009818824558186408
-0.0006512267973646533
-0.0004202967406967257
-0.000263524722386655
-0.0001601680520213374
-9.406500023868033e-05
-5.3115057118356745e-05
-2.8604065127780728e-05
-1.4463308619627851e-05
-6.397932835963488e-06
-2.7008246263203923e-07
-4.084808872776609e-08
-5.106155817331457e-06
-2.0411250118799893e-05
-5.59300162515008e-05
-0.00012664835637967066
-0.00025312843118128515
-0.00046155657480640073
-0.0007831698680504856
-0.0012530752769327742
-0.0019085691466018025
-0.002787135900598965
-0.003924341744320185
-0.005351839347982418
-0.007095667861473693
-0.009174979250643858
-0.01160125889449528
-0.014378046917911927
-0.017501115433684003
-0.020959020737550984
-0.02473393002050017
-0.028802617971180316
-0.033137536530047425
-0.037707876993901886
-0.04248056364933137
-0.04742113873931025
-0.052494517351776425
-0.05766560624915313
-0.06289979209100731
-0.06816331197086925
-0.0734235231748942
-0.07864909029605846