# vtk DataFile Version 4.1 
COMMENT
ASCII
DATASET STRUCTURED_POINTS 
DIMENSIONS 100 100 1 
ORIGIN 0 0 0
SPACING 0.12693303650867893 0.12693303650867893 0 
POINT_DATA 10000
SCALARS U double 1
LOOKUP_TABLE default
0.0
0.0
0.0
0.0
0.0
0.0
0.0
0.0
0.0
0.0
0.0
0.0
0.0
0.0
0.0
0.0
0.0
0.0
0.0
0.0
0.0
0.0
0.0
0.0
0.0
0.0
0.0
0.0
0.0
0.0
0.0
0.0
0.0
0.0
0.0
0.0
0.0
0.0
0.0
0.0
0.0
0.0
0.0
0.0
0.0
0.0
0.0
0.0
0.0
0.0
0.0
0.0
0.0
0.0
0.0
0.0
0.0
0.0
0.0
0.0
0.0
0.0
0.0
0.0
0.0
0.0
0.0
0.0
0.0
0.0
0.0
0.0
0.0
0.0
0.0
0.0
0.0
0.0
0.0
0.0
0.0
0.0
0.0
0.0
0.0
0.0
0.0
0.0
0.0
0.0
0.0
0.0
0.0
0.0
0.0
0.0
0.0
0.0
0.0
0.0
3.332956006540863e-13
-1.634766115997782e-10
-1.79587527102033e-09
-1.0117989007761821e-08
-4.0928967732289994e-08
-1.3403532488152988e-07
-3.771247679071211e-07
-9.439766722502174e-07
-2.15023064170576e-06
-4.528134121432795e-06
-8.918739155445005e-06
-1.657617579571154e-05
-2.927442551586487e-05
-4.940317424841103e-05
-8.003662016971753e-05
-0.00012495822330202476
-0.00018862574391863117
-0.0002760646139636719
-0.00039268343854148287
-0.000544012622520745
-0.0007353749220152349
-0.0009715042013657012
-0.0012561349531355808
-0.001591589505325602
-0.0019783918495351123
-0.0024149365264290804
-0.0028972381392674516
-0.003418782212010706
-0.003970491813264906
-0.00454081726309968
-0.005115948962076995
-0.005680146501824725
-0.00621617119250104
-0.00670580429312129
-0.007130429728339875
-0.007471657956404633
-0.007711966840596024
-0.007835335709140846
-0.007827850052035323
-0.007678256260149241
-0.007378448228171901
-0.006923870307840845
-0.006313823839435997
-0.005551667183583897
-0.004644901750267288
-0.003605138958767434
-0.0024479453923698827
-0.0011925657106435727
0.00013847473893718838
0.0015198830750946634
0.0029242203197894826
0.004322620208504374
0.005685590478330009
0.006983877192851839
0.008189367672524473
0.009276002430219846
0.010220661604587105
0.01100398735413902
0.011611101275993914
0.012032175951938806
0.012262822926127103
0.012304266251411995
0.012163281230943842
0.011851891566542892
0.01138683361292928
0.010788812119658958
0.010081585798348456
0.009290931591388796
0.008443542657394236
0.007565916872104269
0.006683291111765203
0.00581867329893118
0.004992020401920483
0.004219606395117493
0.0035136181819181195
0.0028820071541384076
0.0023286071568278475
0.0018535058360333975
0.0014536285027516615
0.001123467586919457
0.0008558735702961524
0.0006428205402156048
0.0004760727077739545
0.00034770388055006216
0.0002504526596552147
0.00017792377582526365
0.0001246643771707189
8.615117036635432e-05
5.8722016481965455e-05
3.947808972340681e-05
2.6174265672606744e-05
1.7108699338085752e-05
1.1018303171380168e-05
6.984409530485717e-06
4.35128921847678e-06
2.658694175322229e-06
1.587835921958751e-06
9.17125074418013e-07
4.7315422722911024e-07
2.06422682896779e-08
6.919817140125275e-13
-5.759967354633346e-10
-5.134339615625044e-09
-2.558302593696038e-08
-9.450662692421994e-08
-2.8738632856295197e-07
-7.585670011178554e-07
-1.793702865897174e-06
-3.879238699102847e-06
-7.786187506858952e-06
-1.466147855467023e-05
-2.6116179256060078e-05
-4.429678588390444e-05
-7.192432396862706e-05
-0.00011228675090771111
-0.00016917328297598854
-0.0002467445168183088
-0.000349338931658717
-0.00048122362500723837
-0.0006463039363797107
-0.0008478120169060047
-0.001087997706235815
-0.0013678459084297313
-0.0016868430003568297
-0.0020428109706108204
-0.0024318225321516072
-0.0028482040768881313
-0.003284626774692139
-0.003732280025369807
-0.0041811163738965625
-0.004620153241853324
-0.0050378145680003115
-0.0054222946719077
-0.00576192720069714
-0.006045543637702079
-0.006262808238429581
-0.006404519096739179
-0.006462868035872228
-0.006431654910562387
-0.006306454498677679
-0.006084736313521952
-0.005765939297456502
-0.005351504430033086
-0.004844868806360953
-0.004251424752820608
-0.0035784471106356784
-0.00283499101562916
-0.0020317614345047672
-0.00118095450269041
-0.00029606948728576424
0.0006083108601515132
0.0015167744919831689
0.002413371827202291
0.003281947381107119
0.00410651173053379
0.004871651190457911
0.005562968154929804
0.006167539449535296
0.00667437369469077
0.007074842382767809
0.007363054269874374
0.007536140159429545
0.007594416596229818
0.007541403416435445
0.007383681719521718
0.0071305946418052995
0.006793810932213189
0.006386787226819941
0.005924175172115657
0.005421221075494834
0.004893197666317757
0.00435489203774275
0.0038201561046271003
0.003301512658901208
0.0028098069407311967
0.002353902327538109
0.0019404356228678217
0.0015736642251237471
0.0012554445142527266
0.0009853715811321256
0.0007610851382388786
0.0005787126904716113
0.00043339087144599536
0.0003197904826133017
0.0002325755623162961
0.0001667490649214962
0.0001178684036085914
8.214230051462202e-05
5.6438110018615296e-05
3.823365258504016e-05
2.5542468040987484e-05
1.6831732120868648e-05
1.0942894292713989e-05
7.019057653402571e-06
4.44038276607895e-06
2.768007433675506e-06
1.6963929208258162e-06
1.011325383655379e-06
5.385917850713873e-07
2.3914803023364093e-08
7.420183770467119e-13
-1.903652369854056e-09
-1.4955669892421663e-08
-6.893904269817644e-08
-2.40596578790963e-07
-6.994712621810589e-07
-1.7789045536783715e-06
-4.075572321088808e-06
-8.576679064859615e-06
-1.6808153615589916e-05
-3.0990767100900135e-05
-5.4185219094695345e-05
-9.040316728849147e-05
-0.00014465994798298698
-0.00022294693228730483
-0.0003321070817227546
-0.0004796057128248897
-0.0006731986886216814
-0.0009205108941102644
-0.0012285475621426065
-0.0016031686243861006
-0.0020485609499242105
-0.002566744717307142
-0.0031571482978026556
-0.003816281334758684
-0.004537528877514333
-0.005311081297135753
-0.006124006120290517
-0.006960459627638128
-0.007802028682288454
-0.008628187202299771
-0.009416847195960209
-0.010144981391990548
-0.010789293129449816
-0.011326909133226487
-0.011736071838952611
-0.011996809769856826
-0.012091566836034713
-0.012005774078224903
-0.01172835010688897
-0.011252119132292585
-0.010574137928427485
-0.00969592525368081
-0.008623589134902965
-0.007367849014122115
-0.005943951092318945
-0.004371476339080538
-0.002674041645345536
-0.0008788955676975956
0.0009835888529969709
0.0028805205080556944
0.004777190680113943
0.006637860423787295
0.008426625245027686
0.010108344223706791
0.01164961660128949
0.013019783710148518
0.014191927901174883
0.015143832948405248
0.015858862679033796
0.016326707125433694
0.01654393969073002
0.01651432658610945
0.01624883346155113
0.015765286024534256
0.015087663127328642
0.014245032298640312
0.013270176519890228
0.012198001793078088
0.011063849786168624
0.009901859677347278
0.008743520994054682
0.007616532107784786
0.006544031202510365
0.0055442088608337985
0.004630258781203557
0.003810589367370685
0.003089211328795132
0.0024662325312052565
0.001938419747916702
0.0014998124228277768
0.00114238400352143
0.0008567385474280846
0.0006328107565395327
0.00046051894469907936
0.0003303144520113332
0.0002335827013731627
0.00016287671339977245
0.00011199365262739829
7.592834605622732e-05
5.074833188361397e-05
3.343263223454748e-05
2.1705652754959422e-05
1.388450678966038e-05
8.747301254177333e-06
5.42327218272012e-06
3.302022495326273e-06
1.954026669722696e-06
1.0326761664195026e-06
4.5359286757879806e-08
-2.3598691397846365e-12
-5.700041581223771e-09
-4.021849528354667e-08
-1.722905292793627e-07
-5.679001939607391e-07
-1.5741198122752365e-06
-3.840669874877642e-06
-8.479123543407222e-06
-1.725167772966553e-05
-3.2772308595080944e-05
-5.869471695093091e-05
-9.985567690738683e-05
-0.00016234082915030762
-0.0002534434876293703
-0.000381495593391826
-0.0005555625481427648
-0.0007850085524292041
-0.0010789541293391724
-0.0014456606151462723
-0.0018918857978826578
-0.002422259468990506
-0.0030387270557099156
-0.003740104080468092
-0.00452177489205647
-0.005375557253327557
-0.006289741419510262
-0.007249299702015665
-0.00823625135617591
-0.009230158796513612
-0.010208725097814512
-0.011148459598084257
-0.012025377996002961
-0.012815705227452467
-0.013496553077070463
-0.014046549343583119
-0.014446400858777294
-0.014679378250005665
-0.01473171561941346
-0.01459292298073197
-0.014256013143753323
-0.013717647660661105
-0.012978208420480624
-0.012041802533263637
-0.010916208363968775
-0.009612770066508111
-0.008146246858196277
-0.0065346217013013755
-0.0047988721654850935
-0.002962704182226091
-0.0010522473263234417
0.0009042916642430339
0.0028770220139620697
0.004834814642515517
0.006745806824984174
0.008577971525993324
0.010299755421504724
0.011880786494164656
0.013292647326480863
0.014509703602181595
0.015509968715026691
0.016275974806377158
0.016795608376546287
0.017062855765592962
0.017078391987866846
0.016849938269448292
0.01639231264514032
0.015727107908696268
0.014881955162411031
0.013889370110493206
0.012785230340948518
0.011606987806562252
0.010391770081299477
0.009174553503208147
0.00798659008553553
0.006854234018758574
0.005798248609523558
0.004833596208969621
0.003969642897279093
0.0032106650311020547
0.002556535301659648
0.002003487578547094
0.001544897405294748
0.0011720497056014387
0.0008748832508667064
0.0006426997988554478
0.00046481239828191276
0.0003310952464991059
0.00023239737097895176
0.00016079719479344368
0.00010969937637698184
7.379945156579217e-05
4.895715461530866e-05
3.2022264505723164e-05
2.0649377610082463e-05
1.3125377252543161e-05
8.220744701425666e-06
5.065553045980918e-06
3.039123825237892e-06
1.6265341133417306e-06
7.140792611145671e-08
-1.907331204589649e-11
-1.577135717802387e-08
-1.0174324948288733e-07
-4.0882063780737567e-07
-1.2806538694654816e-06
-3.400966094367959e-06
-7.994593545999305e-06
-1.7074844205618896e-05
-3.371719496699659e-05
-6.232712662354244e-05
-0.00010886080987090353
-0.00018095380013466767
-0.00028791628463887295
-0.00044056382540318215
-0.0006508686738378134
-0.0009314362479217869
-0.001294831351948538
-0.0017527962889186627
-0.002315415807546057
-0.0029902903672055533
-0.0037817790538031116
-0.004690367168388009
-0.0057122023261499295
-0.006838828588177484
-0.008057132578309936
-0.009349500444493078
-0.010694171294854352
-0.012065762305869504
-0.013435933520740032
-0.014774156459992995
-0.01604854974763913
-0.0172267464863521
-0.018276761453921323
-0.019167830684744584
-0.0198712010444231
-0.020360852504234167
-0.02061414059989696
-0.020612350764699847
-0.020341159722288688
-0.019791001863074493
-0.01895734053313208
-0.017840845504686145
-0.016447478668411057
-0.014788490296665688
-0.012880328181105523
-0.01074446165064372
-0.008407122022802213
-0.005898960524931315
-0.0032546242332751017
-0.0005122502147725458
0.002287122072514
0.005100219835571401
0.007882286448988078
0.010587909024331254
0.013171919511345
0.015590361738113186
0.01780151277185585
0.019766941998343352
0.021452585474351173
0.022829806589958476
0.023876407142356545
0.024577545878485218
0.02492651477844874
0.024925317327608044
0.0245849885681084
0.02392559518526491
0.02297585739463438
0.021772345834598486
0.02035822918228341
0.018781584046994516
0.017093327487011614
0.01534488950884836
0.013585798214481613
0.01186138985382639
0.010210865388949891
0.0086658846034575
0.007249818694487891
0.005977685579971816
0.004856691859254952
0.003887227325104762
0.003064121251484169
0.00237797923140392
0.0018164640899341292
0.001365442841203844
0.0010099716708043926
0.0007351191193340203
0.0005266335629719997
0.0003714545996801153
0.0002580620046105642
0.0001766591385563802
0.00011920074577044157
7.929205351340315e-05
5.199911240541391e-05
3.361417715349877e-05
2.1414155450253193e-05
1.343795915899098e-05
8.293284662711109e-06
4.981278760512838e-06
2.665994528160317e-06
1.1660131705286158e-07
-8.130215624405062e-11
-4.072327708670395e-08
-2.431177367083295e-07
-9.220295835297873e-07
-2.755450366299581e-06
-7.028646955944025e-06
-1.5945880262771458e-05
-3.29869114749504e-05
-6.326781077066289e-05
-0.00011385163495185136
-0.0001939479704433229
-0.0003149434820543423
-0.0004902188566710809
-0.0007347292376098974
-0.0010643521209147333
-0.001495034538923309
-0.002041795966320843
-0.0027176612799246175
-0.003532607110698313
-0.004492604388797535
-0.005598830577399084
-0.006847108908954114
-0.008227611429430123
-0.009724840559012621
-0.011317882703419617
-0.012980909192365954
-0.014683885802065963
-0.016393442959554343
-0.01807385442636298
-0.019688072329926164
-0.02119877004440401
-0.02256935065132992
-0.023764886547518564
-0.024752964309400955
-0.02550441741485189
-0.025993937291161468
-0.026200560009767695
-0.026108031559996348
-0.025705058919066638
-0.024985457113085502
-0.023948204225332555
-0.022597416988956832
-0.020942259356273443
-0.018996795423742788
-0.016779796459438005
-0.014314509663352643
-0.01162839381078794
-0.008752824195269846
-0.005722766407057784
-0.0025764155713734606
0.0006452051366866858
0.0038986954138667085
0.007138788932201809
0.010318936622163896
0.013391974267694238
0.016310885176711105
0.019029665425919388
0.02150429367499799
0.023693799591752506
0.025561414540947302
0.027075775689252252
0.028212140750904786
0.028953556281138458
0.029291909043064616
0.02922877904344123
0.028776005981658456
0.027955879831567772
0.02680087303832306
0.02535284861219874
0.023661707595205642
0.021783482698484277
0.01977794205906441
0.017705833891319505
0.015625969906518537
0.013592398296612998
0.011651939132635769
0.009842332615930942
0.00819117955071067
0.006715743330787367
0.005423556834842242
0.0043136663934781
0.0033782758283116736
0.0026045405409361225
0.001976300320121059
0.0014756096668167129
0.0010839992057762148
0.000783459145435548
0.0005571662826173915
0.00038998359646517873
0.00026875777276032914
0.0001824367244190474
0.00012203212986591425
8.045994935620191e-05
5.229941900059246e-05
3.351294780638898e-05
2.1163279093162207e-05
1.3149484625088876e-05
7.951794737970998e-06
4.276900473202943e-06
1.8647551518007849e-07
-2.74427040267532e-10
-9.887952053041526e-08
-5.51328003652019e-07
-1.983816213288195e-06
-5.675527129361605e-06
-1.3941273594398238e-05
-3.058677331191992e-05
-6.13877907685051e-05
-0.00011452358186890038
-0.00020088360691276444
-0.0003341682350093713
-0.0005307201266302259
-0.000809051118828195
-0.0011890652402951664
-0.0016910160463537896
-0.0023342697860141114
-0.003135970073947091
-0.0041097117061996
-0.005264330202336016
-0.006602900807141768
-0.008122018825554501
-0.009811405947831829
-0.011653858467301523
-0.01362552639698338
-0.015696490029895444
-0.0178315840313185
-0.01999140927062071
-0.022133469014894155
-0.024213367914568396
-0.0261860181443821
-0.028006805724820477
-0.029632680103994117
-0.03102314038470841
-0.03214110125616599
-0.03295363013758967
-0.03343255393029309
-0.033554938996227864
-0.03330345159432186
-0.0326666081837256
-0.03163892598112771
-0.030220984195393253
-0.028419405706492925
-0.02624676782850079
-0.023721449380913084
-0.020867419728721966
-0.017713973838881836
-0.014295415803047754
-0.010650691730454931
-0.006822971439572239
-0.0028591769850583163
0.0011905452344271575
0.005273413194504087
0.009334664138654102
0.01331828160646168
0.017167800647379026
0.020827196582904568
0.024241860878502747
0.027359664383770337
0.03013210300073235
0.03251551342360641
0.03447233681898822
0.03597239635074667
0.03699414088518927
0.03752579310174876
0.037566327091819375
0.037126190186849525
0.03622767819760377
0.03490487444632068
0.03320307284680701
0.03117762570864062
0.028892189680495194
0.026416389523270457
0.023822978797273887
0.02118464533858211
0.018570678960680643
0.016043775238362503
0.01365727538452259
0.01145312269108326
0.00946074367513057
0.007696943788056475
0.006166765406510132
0.004865122252665342
0.0037789318468672327
0.002889436897992801
0.0021744391547595734
0.0016102474227062018
0.0011732362771470516
0.0008409954011826936
0.0005931043504031155
0.00041159151673666284
0.00028113811692196994
0.0001890810211222836
0.0001252618409772908
8.176714813305563e-05
5.260377650527443e-05
3.334918415227819e-05
2.0803388150672174e-05
1.2627808376489153e-05
6.806761764723794e-06
2.9574909583031864e-07
-8.052804059660956e-10
-2.2708458522563417e-07
-1.1910169390857503e-06
-4.083361751601093e-06
-1.121601972970777e-05
-2.6587772148863984e-05
-5.6505447252046056e-05
-0.0001101730851429293
-0.00020014272673798156
-0.0003425188377502762
-0.0005568266628482905
-0.0008654907213681316
-0.0012929171775511192
-0.0018642247023991946
-0.0026037141499176985
-0.0035332008234412434
-0.004670349917032209
-0.00602715465949929
-0.007608679488214295
-0.009412161164286538
-0.011426524233529621
-0.013632328939838002
-0.016002134250828203
-0.01850122949783978
-0.02108866726846043
-0.02371851823606803
-0.02634126503481779
-0.02890525575126179
-0.031358146324951076
-0.0336482732329087
-0.035725911512603216
-0.03754438698468468
-0.03906102437107101
-0.040237924147095205
-0.04104257004126597
-0.04144827600177931
-0.041434486284578576
-0.040986945309981156
-0.04009775537465908
-0.0387653405001531
-0.036994333937672666
-0.034795405383513014
-0.03218504199468269
-0.029185294986488385
-0.025823501054635982
-0.02213198516871713
-0.01814774847900918
-0.013912142194563278
-0.009470525352169346
-0.004871901434152474
-0.000168525859170011
0.004584526450382653
0.009329846793356212
0.01400824720208366
0.018559400640689346
0.02292258411216906
0.027037540703303678
0.030845473389076408
0.03429017768653139
0.0373193115426043
0.03988578888385101
0.04194926808371211
0.043477688717343616
0.044448790474682726
0.044851528742248035
0.04468728448034495
0.04397075431724193
0.04273040298437379
0.04100836671801858
0.03885971484108134
0.03635100850087355
0.033558140854064715
0.03056350135317928
0.02745257615134014
0.02431017217250054
0.021216525093445116
0.01824360768056407
0.01545197791149867
0.012888480770961363
0.0105850360317174
0.008558612943272405
0.006812333632644354
0.005337494027364814
0.0041161799132571585
0.0031241115570742775
0.0023333787321290498
0.0017148132828862124
0.0012398584509799794
0.0008819006616937069
0.0006171071950006106
0.00042485417613367314
0.0002878393872146819
0.0001919663563528006
0.00012607230371178299
8.155963015433766e-05
5.1978661314248537e-05
3.258984800331918e-05
1.9875220808700997e-05
1.074340033558825e-05
4.6508873217144285e-07
-2.1355026367636593e-09
-4.956014557844289e-07
-2.4590467525389563e-06
-8.061643037170008e-06
-2.131336142566765e-05
-4.885060628143652e-05
-0.00010072008561550862
-0.00019102297125009606
-0.0003382742471461593
-0.000565351449172316
-0.0008989516989636247
-0.0013685381624903533
-0.002004825411418436
-0.002837915503407281
-0.0038952427344677437
-0.005199508557257014
-0.006766787264319457
-0.008604960112729031
-0.010712596175402529
-0.013078349566944179
-0.015680892202615322
-0.018489355271085178
-0.021464215709223657
-0.02455853865937802
-0.027719473703657627
-0.030889900568131512
-0.034010126880963644
-0.03701955384061271
-0.03985824263120527
-0.042468332718116245
-0.04479528085602917
-0.04678890539720085
-0.048404233503835416
-0.049602158825729305
-0.050349924150421985
-0.050621447766829974
-0.05039751424756287
-0.04966585054860943
-0.04842110723757783
-0.04666476273132211
-0.044404966013943614
-0.04165633069710379
-0.038439690675610025
-0.03478182514899054
-0.03071515848963538
-0.026277438356339358
-0.021511393557582425
-0.016464371413776442
-0.011187952687546394
-0.0057375404752062695
-0.00017191771580016328
0.005447233868558635
0.011055862542078748
0.016588134187120546
0.021977091876893423
0.02715540204992448
0.032056202792776316
0.036614069307134005
0.040766109261499414
0.04445319565725667
0.04762133634441763
0.05022316684787984
0.05221953653130272
0.0535811377593521
0.054290104859017176
0.05434148649110594
0.05374447455573513
0.052523258590878454
0.050717370501579186
0.04838139360506605
0.04558393458766675
0.04240579787584118
0.03893735849301608
0.03527519954573395
0.03151816004228526
0.027763021155038817
0.024100134084566353
0.020609346329125935
0.017356599118569377
0.014391532629369165
0.011746340893336626
0.00943597226270243
0.007459597002053534
0.005803096246861845
0.004442203773049076
0.0033458812884455628
0.002479536938893731
0.001807790635220885
0.0012966175383077629
0.0009148271304539789
0.0006349322559988419
0.000433518104827334
0.00029123835130356315
0.00019255689633589744
0.00012533255324633397
8.031844317125054e-05
5.06118576496606e-05
3.099863240022862e-05
1.679305883934969e-05
7.242076619193546e-07
-5.225275838560454e-09
-1.0319213330580959e-06
-4.866417429991475e-06
-1.53016432778908e-05
-3.902332251379279e-05
-8.662649023796588e-05
-0.00017351117460969064
-0.00032046222839048115
-0.0005537383209872633
-0.0009045488396833193
-0.0014078777022291842
-0.002100704293000468
-0.003019756766544986
-0.004198997099957313
-0.005667071084921746
-0.007444957000957618
-0.009544017184266401
-0.011964604806801324
-0.014695313961808737
-0.017712894847000244
-0.020982796128152667
-0.024460249536340958
-0.02809178052867052
-0.031817013823522575
-0.035570642081130324
-0.03928443686261466
-0.04288919960336283
-0.046316573065758496
-0.049500657468899874
-0.052379397841075134
-0.05489572852207156
-0.05699847632344661
-0.058643035416595324
-0.05979183478812449
-0.060414623586039495
-0.06048860151902725
-0.05999842132771234
-0.05893608883091541
-0.05730078367473453
-0.05509862107666921
-0.05234237184706403
-0.0490511549717562
-0.045250114157167634
-0.04097008701468482
-0.03624727299431393
-0.03112290374012937
-0.025642917188591224
-0.01985763441615326
-0.01382143591650677
-0.007592431609070988
-0.0012321164208111918
0.005194999263914705
0.011621797600851356
0.017979015645986366
0.024195780442801493
0.0302002372671954
0.03592029279504738
0.04128449507551299
0.04622307046875375
0.05066913339283475
0.054560077014807605
0.05783914116676273
0.06045713725698092
0.06237428874087811
0.06356212051760646
0.06400530310530494
0.06370333040403925
0.06267188708485322
0.06094374761316715
0.05856904812256022
0.055614788531543446
0.05216345764255227
0.04831072863205
0.044162244257835076
0.03982959601575233
0.03542569292403498
0.031059804680522104
0.02683263883784756
0.022831857891322947
0.01912844434483829
0.015774267488094688
0.012801090957519788
0.010221095077617566
0.008028797857133948
0.0062040801374217015
0.004715892261689162
0.0035261696789114436
0.0025935206876291097
0.001876355588061491
0.001335270216571551
0.0009346403256124364
0.0006434960725772938
0.00043581290349380055
0.000290377385895735
0.0001903754484138709
0.00012281784846629958
7.785983321443147e-05
4.792612816475315e-05
2.6028584119934983e-05
1.1179779579062945e-06
-1.195077889515305e-08
-2.056794602837343e-06
-9.254820275652076e-06
-2.798342898043091e-05
-6.89735141026702e-05
-0.00014851684919295224
-0.00028935007390459876
-0.0005209685339524823
-0.0008791908439722069
-0.001404896564271683
-0.002141980062682751
-0.0031346793934669253
-0.004424528560980037
-0.006047230758360825
-0.008029754233085126
-0.010387915302639255
-0.013124645262009451
-0.01622905343204878
-0.019676311576314522
-0.02342830728949539
-0.02743495391339379
-0.03163600604823701
-0.035963212968119815
-0.040342644499244226
-0.04469704070342222
-0.04894806288885675
-0.0530183541208592
-0.056833348401650045
-0.06032279599901598
-0.0634219961413292
-0.0660727465990359
-0.06822403248654514
-0.06983248444922996
-0.07086264007694149
-0.07128704286449421
-0.0710862112612669
-0.07024850714883472
-0.06876992913493318
-0.06665385186382557
-0.06391072846916941
-0.06055776955270985
-0.05661860877077027
-0.052122962281949396
-0.0471062869306924
-0.041609440054455334
-0.035678342127910816
-0.029363642004875783
-0.02272038318958115
-0.015807668262140518
-0.008688317196206597
-0.0014285137402019383
0.005902567802588636
0.01323316523309583
0.02048937293008437
0.027595643374410395
0.03447536400245341
0.041051530610466284
0.04724754091814333
0.05298813306875485
0.05820049292700216
0.06281554999651752
0.06676947350371613
0.07000536666360367
0.07247513767606521
0.07414150057026751
0.07498002858082291
0.0749811495362604
0.07415194040192248
0.07251755153356762
0.07012207600843418
0.06702868116289949
0.06331884259064877
0.05909056758298132
0.05445556467497253
0.04953540481257033
0.04445682092812033
0.03934639704076699
0.03432499367894506
0.029502329671674703
0.024972176087475446
0.02080860201478559
0.017063634327492184
0.013766554599120103
0.010924869877991874
0.008526788744389493
0.006544848525574117
0.00494021238488511
0.003667112941292096
0.00267696771230251
0.0019218133376311924
0.0013568654970949545
0.0009421698722793615
0.0006434341362214837
0.00043220502929741086
0.0002855771910442294
0.000185598065617135
0.0001184573264937628
7.3328494125767e-05
3.994017293331031e-05
1.708321430524979e-06
-2.5776972973597273e-08
-3.935892557333587e-06
-1.6953523332747643e-05
-4.940635709651412e-05
-0.00011789728684671079
-0.00024658060503125094
-0.0004678138486340027
-0.000821910970962562
-0.0013558607078874906
-0.002121031841145649
-0.003170044129148072
-0.004553109124877127
-0.006314217705317586
-0.00848756270412258
-0.011094540112219739
-0.014141585044652677
-0.017618988266979028
-0.021500725162265148
-0.025745228026500006
-0.030296955590868483
-0.035088565824173405
-0.040043479188252545
-0.045078625484994604
-0.05010719184668742
-0.05504122515729629
-0.0597939826117504
-0.0642819638411155
-0.06842659327409135
-0.07215554999727097
-0.07540376352921672
-0.07811410789048864
-0.08023783406249983
-0.08173478365553846
-0.0825734257055597
-0.08273075524659715
-0.08219208771310241
-0.08095077811955073
-0.07900788890333864
-0.07637182564581005
-0.07305795577721876
-0.06908822187076198
-0.06449075820178274
-0.0592995168068159
-0.053553907218864195
-0.04729845227339064
-0.040582460775657435
-0.03345971630877426
-0.02598817997072704
-0.018229703295515855
-0.010249745982392073
-0.0021170912747723604
0.006096450155076705
0.014316359195208248
0.022465764055295493
0.030465849499463793
0.03823633927097302
0.045696074505421194
0.052763713747784
0.059358582239614245
0.06540169868242525
0.07081700572586161
0.07553282478882278
0.07948354522830592
0.08261154117877773
0.08486928587893654
0.08622160308024163
0.08664795950637987
0.0861446641612141
0.08472680408169173
0.08242971785393641
0.07930979458508736
0.07544439348580113
0.07093071258918748
0.06588349634612671
0.06043155905935929
0.05471320847650621
0.048870771792683926
0.04304454230671138
0.03736656444704532
0.03195474215207222
0.0269077753149903
0.02230138867356055
0.018186211221498213
0.014587496960711436
0.011506668627377021
0.008924447383236549
0.006805143590676407
0.005101564484424125
0.0037599677248279285
0.002724557345491866
0.0019411592887019409
0.0013598901822265282
0.000936803824857891
0.0006346316692135968
0.00042280772596885467
0.00027697625994765353
0.00017809671295946494
0.00011094356764016141
6.063062250638618e-05
2.5819623582221438e-06
-5.278106884367935e-08
-7.250023039021881e-06
-2.997899700786462e-05
-8.437166536895497e-05
-0.00019521999007042986
-0.0003970843237569911
-0.0007343792381428508
-0.001260183430316143
-0.002033750386307422
-0.0031169084065977874
-0.004569714659728626
-0.006445835941912162
-0.008788154792065756
-0.011625047951151768
-0.014967673464114258
-0.018808459260681625
-0.023120836996955458
-0.027860133057492905
-0.032965429133112276
-0.03836214453609419
-0.04396507078148055
-0.0496815999325034
-0.055414922757018294
-0.06106702105195051
-0.06654133162623052
-0.07174501035100761
-0.07659076865401263
-0.08099828934825484
-0.08489525309378804
-0.08821802178433168
-0.09091203222975631
-0.09293195452939064
-0.09424166637186748
-0.09481408881723175
-0.09463092225294882
-0.0936823141449604
-0.09196648356976442
-0.08948932167404879
-0.08626398231110928
-0.08231047314677169
-0.0776552544202691
-0.0723308501506117
-0.06637547474606627
-0.059832676559508365
-0.05275099880831
-0.04518365733636794
-0.03718823384762605
-0.02882638240726364
-0.02016354611693061
-0.011268679852138728
-0.0022139737262223077
0.0069254295677883765
0.016071732276779632
0.025144805059845607
0.034062550377688294
0.04274132316680441
0.05109643001549563
0.059042732126370456
0.0664953812063277
0.07337072038390807
0.07958738333665842
0.08506762275074431
0.08973889254746789
0.09353569545987504
0.09640168721392921
0.098292000059114
0.0991757120723892
0.09903834643307269
0.09788424051601909
0.09573858389296674
0.09264889444752611
0.08868569075577307
0.08394213394110979
0.07853245837202526
0.07258908904378826
0.06625845070939383
0.05969560127719555
0.053057956814945864
0.04649850173737712
0.0401589779019427
0.0341636030776262
0.028613867575282434
0.023584887870388385
0.01912365664993549
0.015249330875255243
0.011955467974874137
0.009213891655355863
0.006979684396798265
0.0051966992941520716
0.0038029791024640084
0.0027355618207513966
0.0019343141368041903
0.0013446261609787434
0.0009189799980423485
0.0006175349856598722
0.000407924090568867
0.0002643722464557851
0.000165807936622528
9.094872410506693e-05
3.855456869848588e-06
-1.0312524311992082e-07
-1.2885533151572056e-05
-5.127428581000951e-05
-0.0001396062110994002
-0.0003136473376679305
-0.0006211550128723924
-0.0011209494449881876
-0.0018803363495373353
-0.002971058107516828
-0.004464197667634627
-0.0064246207776983135
-0.008905594119348829
-0.011944162182244082
-0.015557727999260935
-0.01974209777549537
-0.024471054601316603
-0.02969735358691748
-0.03535490109954715
-0.041361803700553944
-0.047623946785964766
-0.05403878025518593
-0.06049903616666045
-0.06689616780674622
-0.07312336887138152
-0.07907809632454908
-0.08466407502167692
-0.08979280352424576
-0.09438460832234456
-0.09836930928065785
-0.10168656485322786
-0.1042859641383053
-0.10612692672350506
-0.10717846267782855
-0.10741883564890638
-0.10683516296933238
-0.10542297865098409
-0.10318577846726902
-0.10013456104036028
-0.0962873748429576
-0.0916688780794453
-0.08630991628460014
-0.08024712093193646
-0.0735225311722858
-0.06618323986230214
-0.058281064171932684
-0.049872240198461315
-0.04101714011263327
-0.03178000939098252
-0.02222872062966357
-0.01243453927067526
-0.002471895273540493
0.007581846710768566
0.017646627827875398
0.027639957385796117
0.037477210791481724
0.04707197973627505
0.05633649483445642
0.06518214491650609
0.07352012140859729