# vtk DataFile Version 4.1 
COMMENT
ASCII
DATASET STRUCTURED_POINTS 
DIMENSIONS 100 100 1 
ORIGIN 0 0 0
SPACING 0.12693303650867893 0.12693303650867893 0 
POINT_DATA 10000
SCALARS U double 1
LOOKUP_TABLE default
0.0
0.0
0.0
0.0
0.0
0.0
0.0
0.0
0.0
0.0
0.0
0.0
0.0
0.0
0.0
0.0
0.0
0.0
0.0
0.0
0.0
0.0
0.0
0.0
0.0
0.0
0.0
0.0
0.0
0.0
0.0
0.0
0.0
0.0
0.0
0.0
0.0
0.0
0.0
0.0
0.0
0.0
0.0
0.0
0.0
0.0
0.0
0.0
0.0
0.0
0.0
0.0
0.0
0.0
0.0
0.0
0.0
0.0
0.0
0.0
0.0
0.0
0.0
0.0
0.0
0.0
0.0
0.0
0.0
0.0
0.0
0.0
0.0
0.0
0.0
0.0
0.0
0.0
0.0
0.0
0.0
0.0
0.0
0.0
0.0
0.0
0.0
0.0
0.0
0.0
0.0
0.0
0.0
0.0
0.0
0.0
0.0
0.0
0.0
0.0
-7.027229378679003e-13
3.446753108971088e-10
3.715769544048587e-09
2.0600619789211412e-08
8.201205558672667e-08
2.64160038006096e-07
7.303531713112799e-07
1.7943855950464535e-06
4.006592931872181e-06
8.258442125809167e-06
1.5894351887408234e-05
2.8811447953474525e-05
4.952066631949263e-05
8.113777209092974e-05
0.0001272720503335645
0.00019178471004104627
0.00027839868102426873
0.00039015581496202397
0.0005287350167288852
0.0006936634102713271
0.0008814699011593073
0.001084844171191445
0.0012918724272010338
0.001485423032189421
0.001642750200030715
0.0017353727655905465
0.0017292688490375895
0.001585407672439069
0.0012606187261237091
0.0007087777623842727
-0.00011772967133760818
-0.001266322012286944
-0.0027823791868945313
-0.004707317453051055
-0.007076658096499857
-0.009918165496325666
-0.013250125798985816
-0.01707983065539453
-0.02140232198457385
-0.026199444291234407
-0.03143924133973268
-0.03707572448292716
-0.04304903100123641
-0.04928598258697584
-0.05570104660219154
-0.06219769577872479
-0.06867015531816727
-0.07500551948496818
-0.08108621230063556
-0.08679275835162079
-0.09200681956054613
-0.09661444167662521
-0.10050944002057971
-0.10359683772691292
-0.1057962517608004
-0.10704510319271601
-0.10730150999017131
-0.10654670499312827
-0.10478681158313999
-0.10205380839565158
-0.09840552641867893
-0.09392455127891455
-0.08871595402843703
-0.08290384683961347
-0.07662685349377757
-0.07003269095545844
-0.06327216431097522
-0.056492964796878056
-0.049833710056134246
-0.043418661635514166
-0.03735349140985386
-0.031722354181613545
-0.0265863796383067
-0.021983552366419714
-0.017929831176646528
-0.014421284805406512
-0.01143699016004623
-0.008942437985422214
-0.006893200662122756
-0.005238625249411213
-0.003925321775991929
-0.0029002330795676753
-0.002113111575790707
-0.0015182956571870038
-0.00107576574992804
-0.000751547808116171
-0.0005175982134782551
-0.0003513344190059783
-0.0002349693223933476
-0.00015477527936891454
-0.00010036206216932917
-6.401573934483574e-05
-4.011933909395048e-05
-2.4661317665348595e-05
-1.4830507959873711e-05
-8.692218225404787e-06
-4.936606395889509e-06
-2.683570701834211e-06
-1.2995814245283747e-06
-5.669675316333313e-08
-1.4836461760363766e-12
1.2347402141423072e-09
1.08780047162048e-08
5.357280537695117e-08
1.9548974070877138e-07
5.867406713576966e-07
1.527178248119805e-06
3.557275598510514e-06
7.5700549969147375e-06
1.4932497146549646e-05
2.7596835154598325e-05
4.817541896898299e-05
7.994929965387812e-05
0.0001267818053565043
0.00019291484279164024
0.000282637121532641
0.00039982861957030025
0.0005474022775962622
0.000726679651166465
0.0009367496865967486
0.0011738670580905206
0.0014309475626763436
0.00169721280505517
0.0019580255914703262
0.002194942558203688
0.0023859934658930263
0.0025061792788904883
0.002528165427040784
0.0024231339365443577
0.0021617493286494333
0.0017151886893750255
0.0010561859817561899
0.0001600439760450142
-0.0009944266870325368
-0.002424073747383054
-0.004140698357932443
-0.006150493317053342
-0.008453630534033146
-0.011043996586577735
-0.013909069626967398
-0.017029927044598162
-0.020381371225694445
-0.02393216037173122
-0.02764533246072642
-0.03147861280965382
-0.03538489902707914
-0.0393128211060921
-0.043207378644987436
-0.04701066131517749
-0.05066266230845116
-0.05410219713822057
-0.0572679413527629
-0.060099599918268465
-0.06253921769401914
-0.06453263398526542
-0.06603107406157693
-0.06699285625502899
-0.06738517441942336
-0.06718589206456221
-0.06638525694672544
-0.06498741502933404
-0.06301157407521944
-0.060492645629436764
-0.057481188181165786
-0.05404249367873972
-0.05025471306880676
-0.046206007884405195
-0.041990838451300604
-0.03770563702286722
-0.033444236705268464
-0.029293500005673174
-0.025329586058464363
-0.021615203600856767
-0.018198034818176834
-0.01511032529570908
-0.012369470928055376
-0.009979337948150363
-0.007932043607175327
-0.006209984196637709
-0.004787980816751156
-0.003635475344014314
-0.002718723172688201
-0.002002900632437503
-0.0014540039682030023
-0.0010403997379869066
-0.000733914611865388
-0.0005104212120809014
-0.0003499600857740212
-0.0002365048646969538
-0.00015750754218485795
-0.00010335159196656674
-6.680591206997028e-05
-4.253141217654599e-05
-2.665923413770279e-05
-1.644074997171484e-05
-9.96226755455051e-06
-5.915313161110008e-06
-3.4068953653192403e-06
-1.7567307931966796e-06
-7.775540520428081e-08
-1.6218794631926958e-12
4.159252000326963e-09
3.2363628656503955e-08
1.4763129324103282e-07
5.093941219219229e-07
1.4626805162264384e-06
3.6701662342254032e-06
8.28673686809681e-06
1.716517151744709e-05
3.306829738090266e-05
5.98499929151687e-05
0.00010255772269821188
0.0001674056417094196
0.00026157158220768624
0.0003927839213752695
0.0005686843620459432
0.0007959776117445902
0.0010794054776003886
0.0014206073772078166
0.0018169484099490678
0.002260407506288903
0.002736620507660177
0.003224166307748853
0.0036941695057851197
0.0041102723169088445
0.004429004159255149
0.004600551901366246
0.004569909502905125
0.0042783645699872135
0.0036652624571808733
0.0026699766631643083
0.0012340075127019864
-0.0006968708354217948
-0.003170492825395567
-0.006226285681647415
-0.009893419794071882
-0.014189180512146644
-0.019117606663020956
-0.024668431284688732
-0.03081635082208918
-0.03752064072296872
-0.04472512818341136
-0.05235852677732739
-0.06033513278119954
-0.06855587898969674
-0.07690973843568248
-0.08527546733435004
-0.09352367336510757
-0.10151919164826138
-0.10912374601356839
-0.11619886695833744
-0.12260902967994068
-0.12822496549054974
-0.13292708772841766
-0.13660895919595906
-0.1391807127461397
-0.14057232082216226
-0.14073659472460934
-0.1396517814290374
-0.1373236160587482
-0.13378668245448452
-0.1291049332213701
-0.12337122494363252
-0.11670573593106982
-0.10925315731264103
-0.1011785910041168
-0.09266215958982466
-0.08389244150315628
-0.07505899055324337
-0.06634436811651383
-0.05791627758443514
-0.049920497714194045
-0.0424753159198854
-0.035668032823211925
-0.02955384988891818
-0.02415711114769813
-0.019474530776140333
-0.01547979075929113
-0.012128799547330558
-0.009364972621619144
-0.007124081697564688
-0.0053384393738442485
-0.003940362232378987
-0.002864945906910408
-0.002052196934147124
-0.001448539503320214
-0.0010076977254049383
-0.0006909724704542596
-0.000466982303114505
-0.00031099494938089924
-0.00020401070169989382
-0.00013175755531493862
-8.37238832486119e-05
-5.2305022306311896e-05
-3.2093712820720445e-05
-1.931201760207966e-05
-1.1364387996842632e-05
-6.474467951840632e-06
-3.3002383896226577e-06
-1.4499068313791093e-07
5.264031040464054e-12
1.2716659286206022e-08
8.903541186033233e-08
3.780391623206347e-07
1.233779845379088e-06
3.3826816260041105e-06
8.155546699012157e-06
1.7773439395408243e-05
3.565792010324672e-05
6.671693942085888e-05
0.00011754272454715118
0.0001964515330601417
0.0003133002188869967
0.00047903199647820696
0.0007049319856611623
0.0010016082757421801
0.0013777511525329548
0.0018387561931091146
0.0023853212208260074
0.003012139195228564
0.003706807528398128
0.004449059654417346
0.005210399269034894
0.005954185052387789
0.006636177997166793
0.007205528716453918
0.00760615172809183
0.007778410190705844
0.0076610192909959355
0.007193069772483938
0.0063160743574167955
0.0049759477723950165
0.003124844059009595
0.0007227909906743331
-0.0022609210600892196
-0.005846621125767804
-0.010043419958828396
-0.014848648577684085
-0.020247558372824576
-0.02621326069491727
-0.03270687962308428
-0.03967789037859056
-0.04706461727967685
-0.05479486881621871
-0.0627866929003188
-0.07094924213784261
-0.07918374656506423
-0.08738459917795323
-0.0954405671811644
-0.1032361485666529
-0.11065309867854105
-0.11757215401427908
-0.12387497974989466
-0.12944636242230348
-0.13417665898580408
-0.13796449744434316
-0.14071970224452363
-0.1423663900455621
-0.14284614960577627
-0.14212118536762972
-0.14017727046088457
-0.1370263239806539
-0.13270840195364467
-0.12729287345844448
-0.12087854531078665
-0.11359250474187291
-0.10558747726290374
-0.09703755822216792
-0.08813228513379459
-0.07906918309700989
-0.07004513321964746
-0.06124715691123514
-0.05284342486417275
-0.04497541979757031
-0.037752143299635534
-0.031247029815966183
-0.025497841552895303
-0.02050935227622151
-0.016258206702859
-0.012699078722646145
-0.009771207050987682
-0.007404545745595147
-0.005525047214932476
-0.004058887036108122
-0.0029356537750237707
-0.0020906273370104042
-0.0014662768699009504
-0.0010130764550184451
-0.000689713560574853
-0.0004627740059003604
-0.0003060196133095726
-0.00019940578236324783
-0.00012799384051153875
-8.089059610847219e-05
-5.0304168852602356e-05
-3.075688158884729e-05
-1.8453710045846332e-05
-1.0759141091728216e-05
-5.60985659554017e-06
-2.4601645276915194e-07
4.348813981384328e-11
3.595727140422742e-08
2.3046435344438393e-07
9.18839518616522e-07
2.8527977814669154e-06
7.501206504503719e-06
1.7441323817956778e-05
3.6808773852913015e-05
7.17459252514606e-05
0.00013076381605190356
0.00022491892733604333
0.000367707941401108
0.0005746031126065166
0.0008621864241234392
0.001246887413891458
0.0017433803240317096
0.0023627432343265304
0.003110518067280818
0.003984830817138552
0.00497473379852132
0.006058916691436696
0.0072049036338004266
0.008368814161173715
0.009495721709442224
0.01052059982060096
0.011369807435136308
0.011963033777742675
0.012215602007058533
0.01204101934335918
0.011353659066633229
0.010071465089629661
0.008118580839370188
0.005427818901006851
0.0019429043960664382
-0.002379558219055321
-0.00756842956697216
-0.013636711795208867
-0.020580566403763153
-0.028378673848583728
-0.03699192881538041
-0.046363460796209434
-0.05641896726472155
-0.06706734597814748
-0.07820161336979171
-0.08970009728216596
-0.10142789409567325
-0.11323858231668979
-0.12497618659515615
-0.1364773876294051
-0.14757397414011078
-0.15809553266194493
-0.16787236885087073
-0.17673864980416867
-0.1845357499459297
-0.19111577273473737
-0.1963452062756191
-0.20010865257934105
-0.2023125478886963
-0.20288876608516626
-0.20179797052999132
-0.19903255456644942
-0.19461899076144243
-0.18861939722277696
-0.18113212847246007
-0.17229120914993445
-0.16226445034965462
-0.15125011946666883
-0.13947207622909502
-0.12717334654298124
-0.11460819417545076
-0.10203288252490432
-0.0896955019159381
-0.07782545966985295
-0.06662344977070842
-0.056252868848840176
-0.04683364931196773
-0.03843928485942089
-0.031097428601204073
-0.024793920014649147
-0.019479571507696844
-0.015078660912936722
-0.01149793556971527
-0.008635058176364483
-0.006385747340857738
-0.004649263190927886
-0.003332234838792937
-0.002351043313169965
-0.0016330499527997715
-0.0011169394853154323
-0.0007523913835960739
-0.0004992495313915747
-0.00032634393622258474
-0.00021011780304996787
-0.00013320823814849892
-8.310591604613716e-05
-5.097800484138464e-05
-3.06852209836661e-05
-1.7945047808444065e-05
-9.37380889439372e-06
-4.098598795031029e-07
1.895181269941238e-10
9.491607304123052e-08
5.635123923033594e-07
2.122434190756078e-06
6.292272365420224e-06
1.5906645507042363e-05
3.572962816956744e-05
7.310968311644317e-05
0.00013855997140312375
0.00024612997240054094
0.0004134298773069022
0.0006611912212977974
0.0010122933147937194
0.0014902487289215139
0.0021172122622558753
0.002911644953274007
0.0038858172663047154
0.005043365928678485
0.006377123418831148
0.007867418415792303
0.009481003863754495
0.011170713401088798
0.01287588456756633
0.01452352603797226
0.01603015249250876
0.017304169104378382
0.01824866037824021
0.018764425600496272
0.018753104231958813
0.018120246821860964
0.016778207468870782
0.014648759363690835
0.011665362588308676
0.007775040635464081
0.0029398471382356983
-0.0028620742437848617
-0.009635816695841681
-0.017369391243050473
-0.026033721188410842
-0.035582905422919205
-0.045954705805475234
-0.05707121666827491
-0.06883967987108161
-0.08115341615421524
-0.09389285232216506
-0.10692663357351852
-0.12011282066006633
-0.13330018209999145
-0.14632960195273925
-0.15903563318468242
-0.17124823480069595
-0.1827947369181486
-0.19350208086077578
-0.2031993799974643
-0.21172084012242737
-0.21890906426262977
-0.22461874458807418
-0.22872071264295413
-0.23110627823389646
-0.23169173809130436
-0.23042288069544503
-0.227279258308636
-0.22227794805731554
-0.21547648873431446
-0.20697466630487873
-0.19691483410186497
-0.18548049490718
-0.17289293938051328
-0.15940582482024884
-0.14529768817651845
-0.13086252074303925
-0.11639869668901506
-0.10219674926636992
-0.08852671924406695
-0.0756260266773388
-0.06368897775398107
-0.05285903546246697
-0.043224791580022105
-0.034820162151098975
-0.02762874674714081
-0.021591670661066112
-0.01661772868650825
-0.012594403425710282
-0.009398395325898605
-0.0069046304125769745
-0.004993180558034374
-0.003553990816508213
-0.0024896438228396113
-0.0017165574700416693
-0.0011650331692891307
-0.000778510879957422
-0.0005123067966430288
-0.0003320469226489249
-0.00021197070787060818
-0.00013325062359214953
-8.243999340458021e-05
-5.0108496602390126e-05
-2.9614615756373927e-05
-1.5607161367135913e-05
-6.801174810926481e-07
6.540077910505722e-10
2.356118973431396e-07
1.3073898092099318e-06
4.675403937336528e-06
1.327934998669975e-05
3.2352139072551216e-05
7.033299907972972e-05
0.00013974275019747173
0.0002578410806217367
0.0004468714644402574
0.0007337209468161
0.0011488789486549865
0.001724663282262204
0.0024927787186808563
0.0034813672329534356
0.004711784115120265
0.00619537919096739
0.007930571994693441
0.009900484589062364
0.012071341810550307
0.014391775524943492
0.016793087972559833
0.01919044995498004
0.021484941022977672
0.023566286732165938
0.02531611517324607
0.026611541332367206
0.02732889121475524
0.027347394498762802
0.02655270057076941
0.024840103928926098
0.02211739742581342
0.018307302705774187
0.013349454421204091
0.007201937178128379
-0.00015760880101500603
-0.008731285491971412
-0.018500603453678714
-0.029426478757642198
-0.041449522475298595
-0.05449058712622203
-0.06845153850429778
-0.08321622633772527
-0.09865163283956578
-0.11460918403986661
-0.13092621464560095
-0.14742758292754904
-0.16392743771708398
-0.1802311449622186
-0.19613738636814004
-0.21144044728669928
-0.2259327149494362
-0.23940741090457776
-0.2516615824275226
-0.26249937575405036
-0.27173560796848
-0.2791996427419687
-0.28473955620766994
-0.28822655155739274
-0.2895595434778626
-0.2886697864836739
-0.2855253665457477
-0.2801353175865318
-0.2725530704953586
-0.26287890153114485
-0.25126102923345595
-0.2378950226025913
-0.22302123277969035
-0.20692004503591843
-0.18990486256301906
-0.172312872252575
-0.15449380213762642
-0.13679706176862014
-0.11955786261941524
-0.10308313874165428
-0.0876383003064748
-0.073435999204749
-0.06062809253269453
-0.04930178960739143
-0.03948053707072259
-0.031129582407420846
-0.024165481599833127
-0.01846824781693778
-0.013894526701466865
-0.010290208138603159
-0.007501217358423044
-0.005381750096556589
-0.003799765439432746
-0.0026399853913246936
-0.0018048989816336946
-0.0012143352125132234
-0.0008041113075123019
-0.0005241529305994034
-0.0003363753737089802
-0.00021253164815141472
-0.00013217010596644827
-8.077432799425727e-05
-4.80039050549888e-05
-2.5399971819344695e-05
-1.1032446437083126e-06
1.961685900209145e-09
5.530899241645054e-07
2.8885510574735414e-06
9.848499140076925e-06
2.6873542261246724e-05
6.322565064253905e-05
0.00013324099476649
0.0002573797588435201
0.00046280599077193726
0.0007832470445383301
0.00125795016486794
0.0019296634101249317
0.0028417003382923125
0.00403427918249342
0.005540435078958922
0.007381871308654509
0.009565133857412561
0.012078463270363542
0.014889606888786799
0.017944776415139856
0.021168825809289023
0.024466617548655954
0.027725453245674374
0.030818375445725694
0.03360810475359914
0.035951360012237255
0.03770331587989606
0.03872197676299503
0.038872282825500024
0.03802980698704121
0.03608394645644968
0.03294055453492084
0.02852399548336697
0.022778635646230862
0.015669807188788583
0.007184296897826985
-0.0026695778318728603
-0.013862239524434009
-0.026343401651112416
-0.04004283790152662
-0.05487131376098172
-0.07072163259531947
-0.08746975780760903
-0.10497598277567767
-0.1230861308906229
-0.14163277887612727
-0.16043650752147443
-0.17930719487794033
-0.198045377704321
-0.21644371730057788
-0.23428861553239527
-0.2513620353633359
-0.26744358691081777
-0.2823129440132431
-0.29575265634274184
-0.3075514167387139
-0.3175078309424661
-0.3254347154168064
-0.33116391664385086
-0.33455160083354724
-0.3354839058883622
-0.3338827788779321
-0.3297117456232236
-0.3229812806764768
-0.3137533756036655
-0.3021448532324949
-0.2883289585468362
-0.2725347845003793
-0.2550441695563845
-0.23618583238311783
-0.21632667972808997
-0.19586042348924548
-0.17519385999190423
-0.15473138975738718
-0.13485858355607874
-0.11592581962666644
-0.09823320161080938
-0.08201806865034135
-0.0674463630494462
-0.05460886719202484
-0.043522839265769483
-0.03413891420284553
-0.026352413811547574
-0.020017596490658183
-0.01496303108126128
-0.011006290385557237
-0.007966510419854151
-0.005673934525731056
-0.003976187271263153
-0.00274154384058539
-0.00185978239486637
-0.001241317451284997
-0.0008152631799667776
-0.0005269438467701778
-0.00033522050009311455
-0.00020987112363076934
-0.0001291308352612536
-7.725129427046301e-05
-4.1068276689392596e-05
-1.77723597958647e-06
5.315772986605218e-09
1.2334399540379735e-06
6.0968920430144445e-06
1.9887505727788926e-05
5.226172732032714e-05
0.00011895508486786175
0.00024335301999501256
0.0004575573208517363
0.0008025925777019549
0.0013274734414096827
0.0020869929816660147
0.003138269734947575
0.004536272900688519
0.006328698702578522
0.008550670734928866
0.011219769636222636
0.014331862275339592
0.017858108787617673
0.021743395901872225
0.025906298849286514
0.030240532491607405
0.03461773173599945
0.03889131252721986
0.04290111221898214
0.046478490945860707
0.04945158869768566
0.05165046868053907
0.052911927926563254
0.05308381309462843
0.05202873635125478
0.04962713819917766
0.0457796879800033
0.04040904699395407
0.03346104354575592
0.024905324478639978
0.014735555218333151
0.0029692416065887797
-0.010352756519830975
-0.0251669564676945
-0.04138817326590533
-0.05891058352553839
-0.07760889569432863
-0.09733959878816222
-0.1179422701089946
-0.1392409302746782
-0.1610454411539988
-0.18315294917380096
-0.2053493831528758
-0.22741102254460627
-0.2491061589380442
-0.27019688100137745
-0.29044102074228384
-0.3095943067832497
-0.32741277778204764
-0.3436555152490919
-0.35808775842790785
-0.3704844626903763
-0.3806343546269794
-0.38834451888072036
-0.3934455208888578
-0.395797023562806
-0.3952937931629926
-0.3918719108416797
-0.38551491519438397
-0.37625950525310914
-0.36420034452438277
-0.3494934404424782
-0.33235754719272764
-0.3130730688484043
-0.29197803406541617
-0.26946087401000896
-0.24594995233904113
-0.2219000523891547
-0.19777630141980612
-0.1740362854696674
-0.15111136462027636
-0.1293884191149058
-0.1091934137494777
-0.09077821702829487
-0.07431199686493478
-0.05987818799838668
-0.04747747761957081
-0.037036539504269314
-0.028421488068017933
-0.021454390887835677
-0.015930830347833984
-0.011636532073638212
-0.008361463395945505
-0.005910430897401686
-0.004109896628734651
-0.0028113194604480352
-0.0018917043426196212
-0.0012521846741884374
-0.0008154178392999654
-0.0005224198221125889
-0.0003292695171713885
-0.0002038871063223157
-0.00012267676524699083
-6.545128812052038e-05
-2.8217878079139225e-06
1.3285418771205336e-08
2.623171779349232e-06
1.232855902728699e-05
3.858755415574724e-05
9.786264250921356e-05
0.0002158481490845783
0.00042921148509853137
0.0007863471470508086
0.001346726728155027
0.0021786004416411726
0.003355039977188064
0.004948562657773478
0.007024795080336386
0.00963578249177732
0.012813606621340831
0.016564937161945292
0.020867024943903977
0.025665473843478226
0.03087393414097847
0.036375671483271546
0.04202680590477749
0.047660899157757494
0.053094501682581854
0.0581332510256274
0.0625781339470439
0.06623157428444523
0.06890307638825459
0.07041422899658416
0.07060294810078194
0.06932690345817615
0.06646612821199079
0.061924853029089656
0.0556326353950793
0.047544872483051094
0.037642794242020064
0.025933034164274126
0.012446870646465151
-0.0027607762401255817
-0.01961251795405032
-0.03800977725834593
-0.05783412263700579
-0.07894861670487366
-0.10119914880909038
-0.12441573235785608
-0.14841375727327566
-0.17299519744603076
-0.19794978229822796
-0.22305615067069468
-0.24808301436107424
-0.2727903678323649
-0.29693078990891214
-0.32025089260009004
-0.34249298131196776
-0.3633969991751166
-0.38270283527794935
-0.40015308109614683
-0.4154963197107069
-0.4284910263346559
-0.43891014353364805
-0.44654636727871505
-0.45121813753196416
-0.45277626689989503
-0.4511110618284623
-0.44615969412922957
-0.4379134711892932
-0.4264245404938186
-0.4118114625171966
-0.39426301427269417
-0.37403956440516817
-0.35147140821280654
-0.3269535791160857
-0.3009368624873801
-0.27391501603868984
-0.2464085244639935
-0.21894555477136166
-0.19204110236089814
-0.16617559898131182
-0.14177446597370386
-0.11919020883071578
-0.09868862221863804
-0.08044046371572383
-0.06451952763221085
-0.050907414143646586
-0.039504511481314016
-0.03014592163255932
-0.022620431021894993
-0.016690309904720722
-0.012109799241379407
-0.0086405872787779
-0.006063265031253786
-0.004184499117487169
-0.002840297820804381
-0.0018961587951926387
-0.0012450458017385323
-0.0008040891043481009
-0.0005107087134462674
-0.0003185417250150072
-0.00019289727061254708
-0.00010331443076640365
-4.43632421559591e-06
3.102053778776908e-08
5.3377018371381735e-06
2.3943800281230533e-05
7.209345891671698e-05
0.00017678349857873612
0.00037838658207262917
0.0007322168400917893
0.0013084145545810195
0.0021897458269518823
0.0034672168185273986
0.00523374261774345
0.007576419181492508
0.010568165737434932
0.014259600377941902
0.0186719767270927
0.023791862718183076
0.02956801900028077
0.03591067699794156
0.04269316609142676
0.04975562812321226
0.0569104056905184
0.063948606019714
0.07064732136799708
0.07677701891869447
0.08210868296437589
0.08642038382517177
0.08950304695192694
0.09116529052780332
0.09123728271447376
0.08957363610685203
0.08605540555542503
0.08059128709923118
0.0731181325624677
0.06360089935840087
0.05203215133250115
0.038431216957719554
0.02284309831855066
0.0053372099978737505
-0.013993987417035444
-0.03503640807583632
-0.05765577699413634
-0.08169905348258696
-0.10699582308134292
-0.1333596471850412
-0.1605893664658501
-0.18847036037434636
-0.21677577075467108
-0.24526770329846073
-0.2736984265281529
-0.30181159457652235
-0.3293435275091428
-0.3560245915355058
-0.3815807312501183
-0.4057352168902104
-0.4282106810094043
-0.44873152999733523
-0.46702682496991366
-0.4828337314395758
-0.4959016348011801
-0.5059970052775936
-0.512909067334603
-0.5164562805021177
-0.5164935676584235
-0.5129201317103974
-0.5056875840827091
-0.4948079750426993
-0.4803611789390495
-0.4625009652701433
-0.44145900237872904
-0.41754601967920807
-0.3911494189924657
-0.3627267894806693
-0.3327950437328397
-0.3019152383185269
-0.27067353939761074
-0.239659202241066
-0.2094408101128018
-0.18054232340138496
-0.15342068880126059
-0.12844681657758747
-0.10589161639721593
-0.08591845759730077
-0.06858287582557498
-0.053839613154249
-0.04155623882316514
-0.031531793376893345
-0.023518296444347834
-0.017242699596496148
-0.012427016255389538
-0.008804880809273932
-0.006133542923028884
-0.004201103507237959
-0.0028294697981527217
-0.001873934750691282
-0.0012204382424224713
-0.0007814683081067351
-0.000491196435272524
-0.00029947449777764537
-0.00016104058687162426
-6.886365211869954e-06
6.827178315420254e-08
1.0422211925888703e-05
4.47667344234898e-05
0.00012995382338240106
0.00030862577141241266
0.0006418887184422428
0.0012100826772058068
0.002110973072225248
0.0034551069890254578
0.00535853481386249
0.00793353111972777
0.011278271583956546
0.01546658097075178
0.020538845888991932
0.02649500692302067
0.033290255547926036
0.0408337214025512
0.04899010253167564
0.057583910666244166
0.06640580371783537
0.0752203686053739
0.08377469418029393
0.09180712061213904
0.09905564693252761
0.1052656004475042
0.11019630087215682
0.11362657325991231
0.11535906720854304
0.11522342042992155
0.11307836157535432
0.10881288206745311
0.10234662315746289
0.09362962677524023
0.08264159122048878
0.06939075911768655
0.053912548344524656
0.03626801906120595
0.016542252981615806
-0.005157294525058326
-0.02870242267360216
-0.05394575895512486
-0.08072225369435725
-0.10885057982494924
-0.1381344301353807
-0.16836371140368248
-0.19931564154790432
-0.23075576241316162
-0.26243888730849935
-0.294110009093992
-0.32550520169092373
-0.35635255553442
-0.3863731958864599
-0.41528244221364347
-0.44279117704192084
-0.4686075036643142
-0.49243878329874247
-0.5139941527711575
-0.5329876318498193
-0.5491419324469978
-0.5621930765643122
-0.5718959117389765
-0.5780305769195876
-0.5804099132684256
-0.5788877294989586
-0.573367718582797
-0.5638126846463174
-0.5502535839987277
-0.5327977277873795
-0.5116353581011198
-0.4870437222111055
-0.45938776049869556
-0.42911661782373184
-0.39675540010531224
-0.3628919253656457
-0.3281586393361201
-0.29321033982618094
-0.25869882947835054
-0.2252460380522103
-0.1934174718566182
-0.16369801588017532
-0.136472097643791
-0.11200999257894549
-0.09046159360184063
-0.0718582932939988
-0.05612278912710146
-0.043085726400882485
-0.03250728986726367
-0.024101305145026255
-0.017559240338557023
-0.012571749894605676
-0.008846015735231222
-0.00611796481207104
-0.004159284832871734
-0.0027798453216475983
-0.0018265441433210506
-0.0011796827086990292
-0.0007476223674223813
-0.00045913210786045555
-0.0002479584694431893
-1.0557008947727554e-05
1.4256142894421793e-07
1.9578001424582557e-05
8.074663173671726e-05
0.00022643146260450519
0.0005215843328691796
0.0010553745972212078
0.0019402103338276783
0.00330714695099932
0.005297774762758403
0.008053280328623805
0.011701850477056451
0.016345846251051944
0.022050186052957874
0.02883316676597619
0.03666058191900189
0.04544354930730952
0.05504001788894046
0.0652595498047216
0.07587070803897913
0.08661023782762438
0.09719320295739928
0.10732330422209982
0.11670273679668787
0.12504110568617618
0.13206308720452006
0.137514679751589
0.14116801648106614
0.1428248100774553
0.14231856546577723
0.13951573322804126
0.13431599020675278
0.12665183034287356
0.11648763405631221
0.10381836340512239
0.08866800670720647
0.0710878729798912
0.05115481513006516
0.028969442170901093
0.004654365110710644
-0.021647491579627084
-0.049774491222603835
-0.07954778535354899
-0.11077270628812383
-0.1432400502164575
-0.17672725383686705
-0.21099947175307668
-0.24581056594037842
-0.2809040228077015
-0.3160138180080478
-0.3508652544534652
-0.3851758052645161
-0.4186560009311743
-0.4510104090698109
-0.4819387660466996
-0.511137332458542
-0.5383005587781969
-0.5631231626845574
-0.5853027343197611
-0.6045429976841991
-0.6205578622505328
-0.633076394173755
-0.641848815706762
-0.6466535985375667
-0.6473056459442416
-0.6436654556728609
-0.6356490193100233
-0.6232380489100224
-0.6064899390920916
-0.5855466923233233
-0.5606418842029762
-0.5321046574423457
-0.5003597418778751
-0.4659226311050965
-0.4293893180499984
-0.3914203953368067
-0.3527198315381132
-0.31400929005149425
-0.2759993984931659
-0.23935983474982825
-0.20469040893346468
-0.1724954384674534
-0.14316360132951178
-0.11695509199500552
-0.09399730022566895
-0.07428942158338271
-0.05771547097343039
-0.044064233067193835
-0.033053903299194914
-0.024358703379041415
-0.01763469927878784
-0.012542422507416122
-0.008764610868886248
-0.006018276350065062
-0.004061176391186777
-0.0026934292138512624
-0.0017553202989298187
-0.0011220456580935388
-0.0006943159048286224
-0.0003766499279436058
-1.5963607840318175e-05
2.838941210489607e-07
3.5464780079221946e-05
0.00014078557554001236
0.00038203426315065443
0.0008547130755906233
0.0016843632063503707
0.0030225317716635323
0.00503810405217525
0.007904698326513283
0.01178551212883424
0.016817424100316593
0.023096236046569536
0.03066470658914493
0.039504562876766
0.04953309324000393
0.060604335511984755
0.07251437509162162
0.08500991125722601
0.09779906059511037
0.11056333248159235
0.12296980206369164
0.13468267972650677
0.14537369059264246
0.15473089721472302
0.1624657969788052
0.16831868701884325
0.17206240725963845
0.17350464742934343
0.17248904213397778
0.16889528740242396
0.16263850108608854
0.15366802601412727
0.14196584531540862
0.12754474858321402
0.11044635870268825
0.0907391039164325
0.06851619873671001
0.04389368055735822
0.017008535770032297
-0.011983060863185645
-0.04290737763741602
-0.07557461844241556
-0.10978027198649444
-0.14530631799849572
-0.18192229516717623
-0.21938623999792822
-0.2574455102669816
-0.29583751142230186
-0.3342903492055215
-0.37252343706826624
-0.4102480928038058
-0.4471681654576189
-0.4829807413341627
-0.5173769871373144
-0.5500431992960508
-0.5806621415177514
-0.6089147674428259
-0.634482441259345
-0.6570497847618231
-0.6763082919813997
-0.6919608582156775
-0.7037273636714668
-0.7113514264089313
-0.7146083876205871
-0.7133145077501118
-0.7073372299410403
-0.6966062074446433
-0.6811246001249036
-0.6609799368949799
-0.6363536402500843
-0.6075281492984672
-0.5748904976050263
-0.538931239919405
-0.5002378067499635
-0.45948170932236676
-0.41739950657115976
-0.37476804003530007
-0.3323750776436002
-0.2909871044900821
-0.2513164765662399