# vtk DataFile Version 4.1 
COMMENT
ASCII
DATASET STRUCTURED_POINTS 
DIMENSIONS 100 100 1 
ORIGIN 0 0 0
SPACING 0.12693303650867893 0.12693303650867893 0 
POINT_DATA 10000
SCALARS U double 1
LOOKUP_TABLE default
0.0
0.0
0.0
0.0
0.0
0.0
0.0
0.0
0.0
0.0
0.0
0.0
0.0
0.0
0.0
0.0
0.0
0.0
0.0
0.0
0.0
0.0
0.0
0.0
0.0
0.0
0.0
0.0
0.0
0.0
0.0
0.0
0.0
0.0
0.0
0.0
0.0
0.0
0.0
0.0
0.0
0.0
0.0
0.0
0.0
0.0
0.0
0.0
0.0
0.0
0.0
0.0
0.0
0.0
0.0
0.0
0.0
0.0
0.0
0.0
0.0
0.0
0.0
0.0
0.0
0.0
0.0
0.0
0.0
0.0
0.0
0.0
0.0
0.0
0.0
0.0
0.0
0.0
0.0
0.0
0.0
0.0
0.0
0.0
0.0
0.0
0.0
0.0
0.0
0.0
0.0
0.0
0.0
0.0
0.0
0.0
0.0
0.0
0.0
0.0
-3.298153068009911e-12
1.6176957842754612e-09
1.7123776275716503e-08
9.34338573320246e-08
3.6601009333551764e-07
1.1589738007516084e-06
3.145995483202409e-06
7.5761465521441875e-06
1.654865788685932e-05
3.3290959394693025e-05
6.235910601637945e-05
0.00010964520101585752
0.0001820509298801528
0.00028667803881159604
0.0004294017762124417
0.00061273456276385
0.0008329524937889081
0.0010765402295876045
0.0013161004589705577
0.0015059608138449617
0.0015777826882340561
0.0014365241040833804
0.0009571276204665122
-1.770628461585955e-05
-0.0016783365856218352
-0.00424732284173025
-0.007976693220770983
-0.013143220216686123
-0.020041666616671807
-0.028976049468065698
-0.04024906012420531
-0.054149876599466046
-0.07094071219333284
-0.09084256040225906
-0.11402071454417816
-0.14057074974892803
-0.17050573858664944
-0.20374551064963695
-0.24010874328664042
-0.2793085738582808
-0.3209522519200196
-0.36454511359889274
-0.4094988829484011
-0.4551440177037907
-0.5007455544339107
-0.5455217027151185
-0.5886643134915619
-0.6293603147433835
-0.6668132651634758
-0.7002643070893356
-0.7290119757366459
-0.7524305087757163
-0.7699864638544353
-0.7812535623443488
-0.7859257157097369
-0.7838281494655704
-0.7749264253663694
-0.7593329952401895
-0.7373107319014038
-0.7092727164370333
-0.6757774671593642
-0.6375188268949723
-0.5953099306275385
-0.5500610886144581
-0.5027520491375689
-0.4543999238117092
-0.4060250005120841
-0.3586176225368365
-0.313110109187053
-0.27035808968095054
-0.23113528980927164
-0.19614436132105165
-0.1660434476010355
-0.14148379315427517
-0.12314837591436058
-0.11177663849053447
-0.10815804352901508
-0.11307971086510078
-0.1272222951430741
-0.15101293863994222
-0.1844611315421588
-0.22701668778459563
-0.2774922371429183
-0.334081430686022
-0.39447942286386306
-0.4560813428275609
-0.516209014747067
-0.5723075609603157
-0.6220674206239439
-0.6634599417188596
-0.6947130541768206
-0.7142800528686262
-0.7208535390556092
-0.7134367082683398
-0.6913857453369665
-0.6540978909890947
-0.5993192538224372
-0.5167799234518058
-0.36649837245536687
-0.015989200342261107
-7.076825332542941e-12
5.888540727322348e-09
5.128578723921897e-08
2.4966442451648854e-07
8.998630754901184e-07
2.6650956308663344e-06
6.8371769271121186e-06
1.5677185076036896e-05
3.279339434628562e-05
6.34815665778531e-05
0.0001149194109351111
0.0001960855156878026
0.00031727174310170457
0.000489082121180731
0.0007208608787717432
0.0010185622152196763
0.0013821547946770154
0.0018027321948844064
0.002259563767916293
0.002717357984562389
0.0031240159385056976
0.00340912515779443
0.0034833874090095325
0.0032390974035793325
0.0025517036142823036
0.0012823998478292808
-0.0007183726192585963
-0.0036066803586444754
-0.007540302496843174
-0.012673578442752152
-0.019152077277944327
-0.02710724373824732
-0.03665115192923846
-0.0478714816406158
-0.06082682831692774
-0.0755424675576645
-0.09200671516811881
-0.11016804674530165
-0.12993315614355408
-0.1511661290447382
-0.17368887798870897
-0.19728292574084483
-0.2216925388855635
-0.2466291137992226
-0.2717766180048017
-0.29679780804697636
-0.3213408951452079
-0.34504632190229534
-0.36755335066056305
-0.3885062429571501
-0.407559919505668
-0.4243851155975941
-0.43867316927099237
-0.45014068041989447
-0.45853434202391247
-0.46363625768963557
-0.4652700147729933
-0.46330767488462243
-0.4576776713039129
-0.4483733663191371
-0.4354617274643459
-0.41909124888298616
-0.3994979102454084
-0.3770076903904527
-0.35203401344731095
-0.32506858394551313
-0.2966644350608682
-0.2674107173373432
-0.23789981345185932
-0.2086887699944813
-0.18025873691029382
-0.15297794297238307
-0.12707535421813076
-0.10263291914493812
-0.07960330739875338
-0.057856424878651835
-0.037251412842604505
-0.01772216548257877
0.0006439660018254999
0.017559039155131215
0.03254057537107618
0.044980046085556384
0.054263435947081905
0.059912902372688905
0.06170557979827993
0.05972782099983399
0.05434290613730043
0.046082003380771744
0.03549973131773257
0.023052918043544333
0.009054693477496472
-0.006273377926253538
-0.0226687398198386
-0.039663486622961576
-0.05643407101718997
-0.07164095980834384
-0.08302390440305107
-0.08597533874805224
-0.06901801856838123
-0.0033755337978912062
-7.87935865378501e-12
2.019867029947899e-08
1.556959015261431e-07
7.029262711321147e-07
2.3979585665906793e-06
6.799914636531035e-06
1.682973037429184e-05
3.7431380250827205e-05
7.626489828545898e-05
0.0001442781129965533
0.00025595129259336054
0.0004289809367323665
0.0006831776814950818
0.0010384041945857012
0.0015114693027321576
0.002112013677683395
0.002837553532700619
0.0036679726533720676
0.0045598515227401005
0.005441081512803227
0.006206224915406707
0.006713048223033767
0.0067805836966017665
0.006188975263840022
0.00468125434177799
0.0019670843355437746
-0.002271578530619129
-0.00837302882438528
-0.01668672602855234
-0.027562773215606844
-0.0413401753831022
-0.05833411896672106
-0.0788225564969592
-0.10303244489758344
-0.1311260716242082
-0.16318800081080168
-0.1992132654506328
-0.23909749970188254
-0.2826297245059453
-0.32948845023089546
-0.3792416312973954
-0.43135080213075677
-0.4851794585396529
-0.5400054540437759
-0.5950368950888849
-0.6494307817065197
-0.7023134835761267
-0.752802085467182
-0.8000256842644116
-0.843145859113121
-0.8813757393725925
-0.9139973253944587
-0.9403769350603888
-0.9599788189426568
-0.9723770837340592
-0.9772660771503516
-0.9744693246532298
-0.9639469909917052
-0.945801699193434
-0.9202824089026158
-0.8877859597038023
-0.8488558344046896
-0.8041776905795283
-0.7545712415822031
-0.7009781492299014
-0.6444457529484614
-0.5861067576985691
-0.527155476043543
-0.46882184003207444
-0.41234501483110775
-0.3589487737886565
-0.30982049000370687
-0.26609442335592115
-0.22883800245288877
-0.19903752802772934
-0.1775780573354723
-0.16521216149991172
-0.16251440117504112
-0.16982256080480826
-0.18717180215070695
-0.2142322070136759
-0.2502620151058133
-0.2940873996225441
-0.3441152935457736
-0.3983801061455416
-0.4546200643134932
-0.5103758264501673
-0.5631033749747505
-0.6102943901585383
-0.6495991317426218
-0.6789479760217244
-0.6966667574237208
-0.7015752607639952
-0.6930391345012542
-0.6708836561405332
-0.634872445095363
-0.5827737986693232
-0.5038364976370244
-0.3576370729681877
-0.015594514333497891
2.6071299226752812e-11
6.299081527489905e-08
4.3766930585940677e-07
1.8418953261413297e-06
5.951485590177667e-06
1.6137354862971563e-05
3.843455628037807e-05
8.264734519822382e-05
0.00016340250998993146
0.0003008809153894157
0.0005209082862729005
0.0008540904418495618
0.0013337453458059753
0.0019925111608457085
0.002857679516372641
0.003945490051972719
0.00525479526062631
0.006760634924269765
0.008408325645898055
0.01010866278798285
0.011734751327362642
0.01312084150721665
0.01406336558599087
0.014324178667528177
0.01363582515659565
0.011708505197146212
0.008238318655258588
0.0029163255658866036
-0.0045620201208716096
-0.014487442662035015
-0.027127708968415824
-0.0427189713964743
-0.06145768751598607
-0.08349315802268384
-0.10892070659180006
-0.13777554988870025
-0.17002746485629647
-0.20557643814999088
-0.24424955740159385
-0.2857994517660348
-0.32990458876241596
-0.37617167309069693
-0.4241402710145922
-0.4732896154158902
-0.5230473581740804
-0.5727998612924612
-0.6219034891736435
-0.6696963077019433
-0.7155096253516692
-0.7586789267468915
-0.7985539344449849
-0.8345077619772273
-0.8659453533943241
-0.8923116013701551
-0.9130996595797355
-0.9278599864546689
-0.9362105611571486
-0.9378485007329991
-0.9325630007183213
-0.9202491576809587
-0.9009218595409714
-0.8747285956885915
-0.8419597768672156
-0.803054971782976
-0.7586033469656793
-0.7093365229311527
-0.6561120669370928
-0.5998860691019618
-0.5416739609416437
-0.4825002687029794
-0.42334057680365017
-0.36506246351811644
-0.30837579040209495
-0.2538050262145336
-0.2016954476377656
-0.1522596381831996
-0.1056606037221793
-0.062115050230682194
-0.02198906404437055
0.014146244568145625
0.045525546225422625
0.0712755627975421
0.09056124093488672
0.10275296498549583
0.10756381709835044
0.10511197376005371
0.09588791129887984
0.08064130935129335
0.06023463358163922
0.03552519846904906
0.007327063780020031
-0.023528777373033553
-0.0560584216395408
-0.08896121760201446
-0.12045296926348618
-0.14799191946224963
-0.1674208253648378
-0.170092563750449
-0.1343072347860226
-0.00617246852565512
2.19908017095816e-10
1.8181588815733344e-07
1.1577640603556927e-06
4.579551351814031e-06
1.4089905127457729e-05
3.667236149477202e-05
8.430984947964259e-05
0.00017573150090468417
0.0003378928704283747
0.0006067387407869467
0.001026772550625709
0.0016490218266599626
0.0025271451494756282
0.0037116531608044636
0.005242477903284865
0.0071403773449208886
0.009397862782675457
0.01197045351912395
0.014769079068926216
0.01765436505813511
0.02043337154936264
0.022859129593741867
0.024633076633479314
0.025410256972989088
0.024806958103071007
0.022410317460155746
0.017789367746525408
0.010506992249890159
0.00013232442586510277
-0.013746770808927458
-0.03151137831540496
-0.053499514415028634
-0.07999447659689868
-0.11121361079045995
-0.1472975853947897
-0.18830035194465303
-0.23418009623266722
-0.28479161449523643
-0.33988065570653686
-0.39908082206044504
-0.46191359034907215
-0.527791894287644
-0.5960274959073575
-0.6658420955082549
-0.7363818227389591
-0.8067344634775317
-0.8759485551373305
-0.9430533636943078
-1.0070787590617383
-1.0670741311468346
-1.1221257171502035
-1.1713720057783794
-1.2140172005512795
-1.249343013949841
-1.2767192825637763
-1.2956140067413964
-1.305603407350636
-1.3063824552592125
-1.2977760822732507
-1.2797509596425718
-1.2524273827496806
-1.216090492958598
-1.171199870371756
-1.1183965038332284
-1.0585063072373464
-0.9925396518035037
-0.9216866754765711
-0.8473081870461894
-0.7709215774194548
-0.6941801991525807
-0.6188433983467523
-0.5467333964947987
-0.4796754402259834
-0.41941993186876564
-0.36754989721086945
-0.32538330048005265
-0.29388527725773966
-0.27360746297119426
-0.2646678275169681
-0.2667743088002952
-0.27928159045797873
-0.3012579090910661
-0.33153409071573
-0.3687143749840328
-0.4111474163253443
-0.4568797179596076
-0.5036322175064261
-0.5488437812661088
-0.5898085051049684
-0.6239011945968086
-0.6488492133452777
-0.6629834513680416
-0.6653948446634838
-0.6559276289695112
-0.6349151934290791
-0.6023906805533443
-0.5558513505419014
-0.4835825450614005
-0.34441870922935097
-0.01499253615706733
9.787867710021913e-10
4.901498182451083e-07
2.8934888296112625e-06
1.0820575675709906e-05
3.1812559823318134e-05
7.966437543237826e-05
0.00017706866285699198
0.0003581349057111257
0.0006701706764812075
0.001174038691632821
0.001942460731506751
0.0030558354799582574
0.004595448078108512
0.006634323910988571
0.009226352088746797
0.012394609326949468
0.01612000025125071
0.020331366641802108
0.024898103892428778
0.02962608086312685
0.03425733020821407
0.038473609843243724
0.0419035817906638
0.04413305390025381
0.04471751257860742
0.043196056982328396
0.03910583066872286
0.03199612776465937
0.02144150999580731
0.007053483073361033
-0.011509485259106144
-0.03453360152489441
-0.062242855310740294
-0.09479330933950972
-0.13226825211304133
-0.17467394878604245
-0.221935848779948
-0.27389527527881624
-0.330306799451847
-0.39083665461290906
-0.4550626378991891
-0.5224759529560232
-0.5924853547441299
-0.6644237744416814
-0.7375573560673963
-0.8110965703078227
-0.8842088357637172
-0.9560319207398968
-1.025687353927544
-1.0922931542245773
-1.1549753906960023
-1.212878374928925
-1.2651736255358519
-1.3110680747487877
-1.34981225454557
-1.3807093548335505
-1.4031260514207358
-1.4165058365500385
-1.4203852491905284
-1.4144129155895724
-1.3983707105601393
-1.3721956904159616
-1.336000798672931
-1.2900917932770957
-1.2349775008630357
-1.171370507950585
-1.1001759057728082
-1.0224668481903545
-0.9394475030896455
-0.8524063355302721
-0.7626651534623204
-0.6715313048348884
-0.5802610231438281
-0.49004048133935657
-0.40198740961382373
-0.31717071534925356
-0.23663981103208406
-0.161451240062808
-0.09267948358240877
-0.03140236996422601
0.021341408045319768
0.06461675305930714
0.09766593669332639
0.11997648313776467
0.13133058222913443
0.13183013601136392
0.12189957778274836
0.1022748382339635
0.07398897244022187
0.0383623911948711
-0.003000408567277384
-0.048212329173886424
-0.0951101610812256
-0.14126000283342524
-0.1839017022840555
-0.21960716483496948
-0.2429656572281518
-0.24240895010160915
-0.18846887401480478
-0.0084470010361806
3.450598220523808e-09
1.2429313330955996e-06
6.861920302291954e-06
2.4378493449820846e-05
6.870392055488001e-05
0.00016589848949631828
0.0003570838607871361
0.0007017012137000226
0.001279144920263257
0.002187821939140609
0.003540913690145654
0.005458524998957229
0.008056425212932112
0.011432124474757784
0.0156494841896378
0.02072335385826564
0.026605809532812226
0.03317543558811412
0.04023077247400489
0.04748860756986717
0.05458728690356431
0.06109474438629366
0.06652054194527952
0.0703309283212751
0.07196577422187464
0.07085622525618752
0.06644201530229549
0.05818757628937608
0.045596335607088326
0.028222876844012063
0.005682919483449634
-0.02233868483670758
-0.05608156771974743
-0.09570461477981913
-0.14128145010858445
-0.19279630085748578
-0.25014008959907263
-0.3131068245415346
-0.3813905823538677
-0.4545835647701238
-0.5321758214376917
-0.6135572400849849
-0.698022298351613
-0.7847778564285492
-0.8729539740864259
-0.9616174060476295
-1.049787122634623
-1.1364509740627236
-1.2205825103992503
-1.3011570083025081
-1.3771659391341318
-1.4476294167327879
-1.5116065446538518
-1.5682039884390246
-1.6165834713664926
-1.655969178660778
-1.6856562115119902
-1.7050212291446598
-1.7135362434948582
-1.7107861968558071
-1.6964904907983136
-1.6705280978306054
-1.6329653397191122
-1.5840849139867166
-1.5244143135204875
-1.4547513756314112
-1.3761842207284258
-1.290102191021937
-1.1981935623146223
-1.1024249863638582
-1.0049973504022485
-0.9082737986831566
-0.8146788206334639
-0.72657285027494
-0.6461140071142649
-0.5751254377418935
-0.5149902562162573
-0.466593514224446
-0.4303207660682277
-0.4061073516399338
-0.3935163906639732
-0.3918133781193139
-0.4000069952680949
-0.41684109899534966
-0.44074772308504206
-0.4697959273900183
-0.5016851396536289
-0.5338259435086405
-0.5635251379761727
-0.5882532518874715
-0.6059357488671491
-0.6151881938296437
-0.615416776644043
-0.6067170340169723
-0.5894799964261168
-0.5634370360370663
-0.5252334710747976
-0.4617022436863249
-0.3306891400878573
-0.0143539426755267
1.0575144985105571e-08
2.9811328055886032e-06
1.549713406015864e-05
5.251441750168688e-05
0.00014224409132812895
0.00033183135436151825
0.0006926490884696515
0.0013238685353619934
0.0023529123452207313
0.003931634555995303
0.006227594844195025
0.009410511708518006
0.01363475469948283
0.01901942010040264
0.025628000479612174
0.033449827585084975
0.042385321960595676
0.05223666094362119
0.06270486206910522
0.07339357639362731
0.08381920162069292
0.09342634665685551
0.10160726703918298
0.10772367110476956
0.11112926574049269
0.1111915409213191
0.10731154396955228
0.09894072428897888
0.08559429744957475
0.06686094996542766
0.042409053636000886
0.011989853948967902
-0.024561684638340058
-0.06732757428414278
-0.11630823043945133
-0.1714239239839348
-0.23251575314168582
-0.2993458951634147
-0.37159718910864903
-0.4488723738226896
-0.5306935166087007
-0.6165022823837655
-0.7056616871138816
-0.7974598479229402
-0.8911160022428591
-0.985788758487069
-1.0805862165162374
-1.1745773197176401
-1.2668036278314612
-1.3562906690443584
-1.4420581545337678
-1.5231286047651624
-1.5985343067935331
-1.6673229409494401
-1.7285626204025688
-1.781347414943855
-1.8248046247582248
-1.8581050867534536
-1.8804776052457641
-1.8912281860562405
-1.8897641225042545
-1.8756221649842122
-1.8484990783209874
-1.8082819924349967
-1.7550752955612
-1.6892206715435552
-1.6113074893292598
-1.5221722125240367
-1.4228876165582525
-1.3147448093412253
-1.1992324692700895
-1.0780174455455713
-0.9529284641895824
-0.8259406148523043
-0.6991540984381268
-0.574758617031576
-0.4549767231396231
-0.3419858576879313
-0.23782783657344544
-0.14432227822801624
-0.06300245695352161
0.004914324816273329
0.058523387584942355
0.09721346906266674
0.12065870473360933
0.1288467840329489
0.12215280217354513
0.10144452874782164
0.06818273632085596
0.02447054404819306
-0.026985320505523307
-0.08301183865108588
-0.1401780356497037
-0.194999854881825
-0.24399172790624396
-0.28323226200088775
-0.3066068711088496
-0.3005702124541366
-0.23018187412389077
-0.010151556353175379
2.9283309422382086e-08
6.793482706871337e-06
3.3436057284275024e-05
0.00010843428647537996
0.0002829474233939907
0.000638773810887092
0.0012947127648921437
0.002409322234856233
0.004178282505769909
0.006825214880783563
0.010585769206134845
0.01568589462330991
0.022316222132654072
0.03060521756024042
0.04059407926055351
0.05221621633307389
0.06528359878686275
0.07948143713682351
0.0943716774902617
0.10940484406721278
0.1239389543256535
0.1372636603760242
0.14862747359726852
0.15726590120580577
0.16242852212974618
0.16340339106872295
0.15953761319018953
0.15025341284240812
0.13505947833245996
0.11355776936565411
0.08544630677857896
0.05051871602840423
0.008661458274638987
-0.040150253266519845
-0.09585689582158094
-0.1583186293200464
-0.2273182673976395
-0.302562957377103
-0.3836846244900841
-0.47023953987640454
-0.561707612446249
-0.65749214577385
-0.7569208188574458
-0.8592485357806193
-0.963662555466433
-1.069289991318996
-1.1752074127506598
-1.2804519487552533
-1.384033049940432
-1.484943959302031
-1.582172000673198
-1.6747070173429903
-1.761547655847145
-1.8417056446663562
-1.9142087049031535
-1.978103186118009
-2.032457885766237
-2.076370736945858
-2.1089801046674523
-2.1294823007635126
-2.137156608183308
-2.131398591549377
-2.111761739925389
-2.0780064909762124
-2.0301543614396222
-1.9685432322041225
-1.8938779056057755
-1.807268186006537
-1.710245519556373
-1.6047494497098402
-1.493077540760562
-1.3777972999268502
-1.2616254706603418
-1.1472873505451764
-1.037374222043776
-0.934218269190586
-0.839800198564715
-0.755695798528908
-0.6830565840074774
-0.6226105729269971
-0.5746659894634225
-0.5391051477526266
-0.5153666719602406
-0.5024273568176433
-0.49880479715814013
-0.5026037655842774
-0.5116214535061296
-0.523511063645054
-0.5359847515634574
-0.5470215167999082
-0.5550380699114557
-0.5589822988737966
-0.5583152423710416
-0.5528429822128981
-0.5423037805940258
-0.5254024382336292
-0.4973408898385717
-0.4431368418418489
-0.3194974108722134
-0.013808823222112557
7.479429898664764e-08
1.4765008723467395e-05
6.911317633618453e-05
0.00021511963835319547
0.0005418507531853586
0.0011855942734315462
0.002336165881390623
0.004236640926791021
0.007174551214460244
0.01146384858183544
0.01741847566014801
0.025319875147861336
0.035381906545672644
0.04771720899008958
0.062308967578844236
0.07899136054529787
0.09744084489277603
0.11717909737192622
0.13758709277351408
0.15792866407272327
0.17738107833747124
0.19506973627087215
0.21010405379193509
0.22161185279046688
0.22877008578106348
0.23083034464940078
0.22713826135428972
0.21714652117121125
0.20042172642281328
0.1766457487183484
0.1456124918341586
0.10722116939984891
0.061467295971163724
0.008432603664483895
-0.05172497256656633
-0.11878025418279171
-0.19244797725771587
-0.2723877143746963
-0.35820647333008176
-0.44945923040199937
-0.5456479522167291
-0.6462198681415117
-0.7505658451255341
-0.8580196740254613
-0.967858903483502
-1.079307577184921
-1.1915408854130805
-1.3036913901337732
-1.414856188277527
-1.5241041981041483
-1.6304827281448455
-1.7330226309244772
-1.830741640151463
-1.92264590132544
-2.0077301748734575
-2.0849776510496913
-2.1533606970423445
-2.211844092320925
-2.259392341193092
-2.2949824437672057
-2.317623052979483
-2.3263802914056333
-2.320409756618682
-2.2989935773832255
-2.261580987478648
-2.207830897107433
-2.1376553428736984
-2.051263222997626
-1.9492038741813598
-1.832409238060519
-1.702231245273746
-1.5604678598052122
-1.4093680525685326
-1.2516045865392948
-1.0902057489262391
-0.928444001293212
-0.7696900217799928
-0.6172516807246853
-0.4742245577812337
-0.34337943870099813
-0.22710114469305404
-0.12737452409650413
-0.045794033891376006
0.016438453661234028
0.058560357087033305
0.08035371027848337
0.08229390469868467
0.06569762098558572
0.03280947327655786
-0.013227775145146368
-0.06854650154765385
-0.1288542130136013
-0.18979405622940435
-0.24724781653716968
-0.2973851795765988
-0.33607082735110755
-0.356710440893038
-0.3442560049706963
-0.2599853295819942
-0.011320096013052944
1.784929749189205e-07
3.0706721864183405e-05
0.0001372127098761031
0.00041091715919431833
0.0010008970137615103
0.0021254565792145647
0.004075948360918234
0.007209773921802045
0.011930970198638606
0.018658891244426417
0.027787656032390338
0.03964078392837314
0.05442643055473448
0.07219870613150518
0.09282974791018422
0.11599573831192063
0.14117822140066383
0.16768020503219383
0.19465493111433727
0.22114404771463855
0.2461213122306752
0.2685378826575366
0.28736562747312044
0.30163557415128656
0.31046947910141565
0.3131034050306352
0.3089030269038179
0.2973710788901698
0.27814786177117223
0.2510060479239917
0.21584117265853825
0.1726592270560828
0.12156271136168768
0.06273640066451004
-0.0035660712142654935
-0.07703389106772236
-0.1573083275054762
-0.24398918053733937
-0.3366383500439548
-0.43478078315582597
-0.5379033556751761
-0.6454524633568436
-0.7568312131036444
-0.8713970931037344
-0.9884608618329861
-1.1072871435621983
-1.227096885759142
-1.3470714712275775
-1.4663579452594449
-1.5840745765630526
-1.6993158704846878
-1.8111562233805818
-1.9186516509085405
-2.0208394176052176
-2.1167358972146904
-2.205333547854792
-2.285598434957588
-2.356470221798416
-2.4168669177922526
-2.4656968681298967
-2.5018804058215993
-2.524383161643949
-2.5322621101564344
-2.524723909285913
-2.5011929503438566
-2.461383955998272
-2.4053714081308595
-2.3336462936312685
-2.2471504777274998
-2.147281095058813
-2.035861716543747
-1.9150828240651392
-1.7874195633336962
-1.6555377765069232
-1.5221984607172119
-1.3901661071327511
-1.2621198417424133
-1.140561313791889
-1.027713180105295
-0.9254081965623617
-0.8349795491206866
-0.757173381005572
-0.692108721412901
-0.6393042771736214
-0.5977761558302127
-0.5661906494906471
-0.5430396400750284
-0.526800090059886
-0.516046211890637
-0.5095000730954728
-0.5060256029268118
-0.5045823722732358
-0.5041494083694317
-0.5035927781732542
-0.5013522886006534
-0.49457279200985743
-0.4766679188927256
-0.43071201755287813
-0.312263257630458
-0.013416237105070897
4.015403686634496e-07
6.12843006989294e-05
0.00026225515937457113
0.0007572874202039932
0.0017865767699222993
0.003686606583068553
0.006887194552930313
0.011892248511865865
0.01924396225986099
0.029473259754947755
0.04304195366650677
0.0602837587356207
0.08135169107062824
0.10617849416883249
0.13445482596292466
0.16562744939810162
0.19891707277319054
0.23335321178080115
0.2678217931544857
0.3011203330718662
0.3320153943711723
0.35929753144067994
0.38182987892822096
0.3985877201615419
0.4086875934796832
0.4114056127103152
0.4061855953549444
0.3926382593314027
0.37053315650068247
0.3397851805641876
0.3004374645949077
0.2526423310551933
0.1966417387006695
0.13274843799159414
0.061328827293970496
-0.017211702767140666
-0.10244035769766907
-0.19390511383059375
-0.2911393989953063
-0.3936634871565068
-0.5009830958573089
-0.6125859096307753
-0.727936903323297
-0.846473380194861
-0.9676005598036954
-1.0906883561108833
-1.2150697001154485
-1.3400404227921685
-1.4648603748021416
-1.5887551766467145
-1.710917819678295
-1.8305093129872212
-1.946657709114445
-2.0584551317585595
-2.1649528349302534
-2.265154789412063
-2.3580107519394993
-2.4424101590244334
-2.5171784503444443
-2.5810775482532224
-2.632812228252283
-2.6710440837010925
-2.6944148090463877
-2.7015806512864926
-2.6912600383462384
-2.6622963226512333
-2.6137368254660838
-2.5449274188787094
-2.455618433904805
-2.346072980930765
-2.2171638512578262
-2.0704418058840925
-1.9081582498470864
-1.7332303912680147
-1.5491467750664387
-1.3598232909716985
-1.169430457070929
-0.9822177439237065
-0.8023572712127307
-0.6338178434182665
-0.48026494686684534
-0.3449692229749515
-0.23070107419987704
-0.13959559472738708
-0.07298859300114614
-0.031245449656837797
-0.013622034408775172
-0.018203698894900384
-0.04196064044733642
-0.08093650097347017
-0.13055676722210105
-0.18601076501866756
-0.24262924835604027
-0.296141503433047
-0.3426182116506174
-0.3776975294290546
-0.3941375756783733
-0.37539222438974845
-0.2799827264557513
-0.01205190845774321
8.571216282807545e-07
0.0001176804932568916
0.00048359019327561507
0.001349009835543747
0.003086891666708488
0.006196654733616617
0.01128781751553179
0.019041103890180544
0.030149525079787486
0.04524590674866283
0.0648260817492664
0.08917796695471264
0.11832589509064989
0.1519971934539928
0.18961467732609202
0.23031514340708342
0.27299073506247046
0.31634766240314394
0.35897542887669187
0.3994194559107041
0.4362506478729729
0.46812673300800345
0.49384184629951544
0.5123625044679282
0.5228496427996217
0.5246676018026957
0.5173818112612589
0.5007474234388823
0.47469133741544367
0.4392899937664786
0.39474507264120734
0.34135887195423115
0.2795107476605824
0.2096356265873918
0.13220529422218272
0.04771292568975261
-0.04333885023781532
-0.14044622152867858
-0.24310883413969353
-0.3508310363455568
-0.4631201712243829
-0.5794825626348343
-0.6994179897232071
-0.8224135106328285
-0.9479374573851939
-1.0754342775570334
-1.2043206582573744
-1.3339830636692758
-1.4637764919912313
-1.593023962715653
-1.7210160342392828
-1.847009571114601
-1.970225060845086
-2.0898420328001235
-2.20499254643161
-2.3147532635024137
-2.4181372531624707
-2.514087333455668
-2.6014733355578508
-2.679096060948115
-2.7457007281458488
-2.800002209565811
-2.84072322734831
-2.866644934332664
-2.876667198321045
-2.869873927841334
-2.8455975779435705
-2.8034771353046217
-2.7435055875950716
-2.6660656460382914
-2.571955121399157
-2.4624043142489755
-2.339085910423437
-2.2041132187256536
-2.0600168839708295
-1.9096865796990867
-1.7562659464616872
-1.6029979540895254
-1.453032651042535
-1.3092252793977168
-1.1739633160879008
-1.049060178917969
-0.9357388295628222
-0.8347035377574962
-0.7462708784496284
-0.6705119590688081
-0.6073551003011364
-0.5566139735239423
-0.5179353520417231
-0.49069212472372065
-0.47386812561346
-0.4659811018782231
-0.46506208521532877
-0.46864568274853846
-0.47360066131887574
-0.4753631905989513
-0.46551872546914436
-0.42525083924119605
-0.3090340290770974
-0.013176834866655142
1.7449503391959856e-06
0.00021792861622896468
0.0008620113108307026
0.002326929714105217
0.0051712392304992805
0.01010902729939903
0.017970876218517246
0.029636353440012368
0.0459451980655838
0.06759878168098457
0.09506549778185193
0.12850318382591497
0.16770883614759652
0.21210152116151282
0.26073949051022927
0.3123679937289763
0.3654908374365395
0.41845673387641513
0.46955096539252433
0.517083663457352
0.5594677007640545
0.595281400816901
0.6233135802486713
0.6425905324616001
0.6523862255464228
0.6522181283006487
0.6418317024040413
0.6211767832684828
0.5903789266498682
0.5497084343269913
0.49954928531522697
0.44036966480634
0.37269526201375247
0.29708605008440586
0.21411690234892383
0.12436215415861904
0.028384075813270286
-0.07327485718514896
-0.1800960723525185
-0.2915856462531052
-0.4072720679566955
-0.5267015441829921
-0.6494315068700791
-0.775023073476936
-0.9030332215105652
-1.0330073555618824
-1.1644727694454844
-1.296933256310625
-1.4298648278863246
-1.5627122121948527
-1.694885553377616
-1.825756580999954
-1.9546534811658882
-2.080853801318455
-2.203574946976227
-2.321962157195935
-2.4350742460952266
-2.54186785103304
-2.6411814409042798
-2.7317209477845594
-2.812049641108156
-2.8805857777479806
-2.9356125347136577
-2.975305482625116
-2.9977829073226054
-3.0011830467266747
-2.9837693150294857
-2.9440598148337864
-2.8809715942026313
-2.793964672046102
-2.683167757902045
-2.5494684787434068
-2.394556289387245
-2.220914822723637
-2.031769327805876
-1.8310005084292806
-1.623035952058985
-1.4127243498288964
-1.20518878801072
-1.0056485402270363
-0.8191988540579308
-0.6505473737341786
-0.503722033765382
-0.3817826626587227
-0.2865798779327332
-0.21860467700525205
-0.17695934427649274
-0.15945870558701375
-0.16284725769295613
-0.18309900996604808
-0.2157563772268477
-0.2562601685259777
-0.30021601994603125
-0.3435150738808095
-0.3821391669323045
-0.4112459272733471
-0.42255677276372716
-0.39778583840150983
-0.29324224600682625
-0.012483679054886454
3.402151150647958e-06
0.00039003517765724525
0.0014880870081236243
0.0038930131300633987
0.008412233066775316
0.016029429496288855
0.027831142841600334
0.0449010231426445
0.06819571798056519
0.09842027980689182
0.1359212070733796
0.1806120571460397
0.23194098365462476
0.2889029219212732
0.3500928257924121
0.4137913956135969
0.4780717214916482
0.5409143196717833
0.600318904848335
0.654403423753678
0.7014837937570962
0.7401308940130443
0.7692042031529288
0.7878637672111178
0.7955637634353346
0.7920317821241954
0.7772381665444065
0.751359483791297
0.7147396248403642
0.6678513131344835
0.611260060849381
0.5455919265327265
0.47150583614522845
0.38967075058601336
0.3007476078015514
0.20537574155270405
0.10416337362749878
-0.0023182362052518776
-0.11353736320986009
-0.22900146156131748
-0.348254232764687
-0.47087052696853066
-0.5964495717229533