# vtk DataFile Version 4.1 
COMMENT
ASCII
DATASET STRUCTURED_POINTS 
DIMENSIONS 100 100 1 
ORIGIN 0 0 0
SPACING 0.12693303650867893 0.12693303650867893 0 
POINT_DATA 10000
SCALARS U double 1
LOOKUP_TABLE default
0.0
0.0
0.0
0.0
0.0
0.0
0.0
0.0
0.0
0.0
0.0
0.0
0.0
0.0
0.0
0.0
0.0
0.0
0.0
0.0
0.0
0.0
0.0
0.0
0.0
0.0
0.0
0.0
0.0
0.0
0.0
0.0
0.0
0.0
0.0
0.0
0.0
0.0
0.0
0.0
0.0
0.0
0.0
0.0
0.0
0.0
0.0
0.0
0.0
0.0
0.0
0.0
0.0
0.0
0.0
0.0
0.0
0.0
0.0
0.0
0.0
0.0
0.0
0.0
0.0
0.0
0.0
0.0
0.0
0.0
0.0
0.0
0.0
0.0
0.0
0.0
0.0
0.0
0.0
0.0
0.0
0.0
0.0
0.0
0.0
0.0
0.0
0.0
0.0
0.0
0.0
0.0
0.0
0.0
0.0
0.0
0.0
0.0
0.0
0.0
-4.4815300175631576e-13
2.1981248495814411e-10
2.4464648397643444e-09
1.3933796602137346e-08
5.6961048765045636e-08
1.885382235023068e-07
5.363377444481833e-07
1.357903163298918e-06
3.130068888908088e-06
6.673846434941466e-06
1.3316566571847363e-05
2.5087939420733517e-05
4.494042323923617e-05
7.697773077382168e-05
0.000126669499545412
0.00020102616314500167
0.00030870674073131554
0.0004600341045877406
0.0006668973258945537
0.0009425285052895443
0.0013011512433814911
0.0017575085172686633
0.0023262880349302897
0.0030214720530411165
0.003855645297766753
0.004839298466380193
0.005980165602705105
0.007282631557878367
0.008747241173818329
0.010370335359299926
0.012143831569164994
0.01405515806071967
0.01608734334134144
0.018219254976254765
0.020425975787801226
0.022679300684123115
0.02494833399517884
0.027200165229730445
0.029400600462105807
0.03151492690835054
0.033508689416745556
0.03534845932594765
0.03700257819500335
0.03844186107113594
0.03964024606139096
0.04057537888837262
0.041229122765543906
0.041587985304122686
0.04164345529335845
0.04139224315749292
0.040836419801274594
0.03998344954615417
0.038846114058819096
0.03744232566700061
0.03579483024431409
0.033930801804706395
0.03188133282196554
0.02968082572686407
0.02736629169243278
0.02497656256052229
0.022551420906514266
0.020130652770199115
0.01775302920533324
0.015455228664832451
0.0132707242203159
0.011228678240045474
0.009352910445588844
0.007661028092938023
0.006163821491663773
0.004865025452027836
0.0037615211159486967
0.0028440023340702016
0.0020980636258137847
0.0015055975879766825
0.0010463368184628972
0.0006993548455951515
0.0004443592650051937
0.0002626631758267431
0.00013779213174997
5.5752256251582925e-05
5.032918191698107e-06
-2.3564264128574515e-05
-3.718669560411849e-05
-4.122309254803089e-05
-3.959411571675667e-05
-3.502797238853139e-05
-2.9316392358625345e-05
-2.354722971729709e-05
-1.830801769459986e-05
-1.3854386731765794e-05
-1.0239853830896893e-05
-7.408027009517734e-06
-5.252582951942668e-06
-3.6528006506047574e-06
-2.4925504980069743e-06
-1.6690664637715882e-06
-1.0953912190067444e-06
-6.967772088276491e-07
-3.916723409068875e-07
-1.7087463404889423e-08
-9.194514784343585e-13
7.654412449597448e-10
6.880243416089124e-09
3.456394108645102e-08
1.287663923822108e-07
3.9504458048533703e-07
1.0524633892924033e-06
2.513059710070074e-06
5.491033585718707e-06
1.1140711861241303e-05
2.1216857266090683e-05
3.824487317133155e-05
6.568296347313957e-05
0.00010805448538012469
0.00017102752343850868
0.000261420652632812
0.0003871189530912653
0.0005568920544629845
0.0007801153494986064
0.0010664052892543643
0.0014251885804525595
0.0018652320390777936
0.0023941640298240346
0.0030180194700799696
0.0037408383579218946
0.004564343125106565
0.005487713515105271
0.006507469981431135
0.007617468648237518
0.008809003439686183
0.010071004669164224
0.01139031858241842
0.012752049257582887
0.014139942876234744
0.015536794535804335
0.016924859210723495
0.018286250864171644
0.019603316724203543
0.02085897704496131
0.022037023994312413
0.023122376416892368
0.024101289948346833
0.024961524191080327
0.025692470341772744
0.02628524376405678
0.026732746534734852
0.027029704991459534
0.027172686827600673
0.02716010139267039
0.02699218567082039
0.026670977073364965
0.026200272894241827
0.02558557529670335
0.024834020324939175
0.02395428996202702
0.022956507887987386
0.021852122299896904
0.020653782515475207
0.019375219135095406
0.018031138778002824
0.01663714199824317
0.015209665296944628
0.013765934619905934
0.01232389984719392
0.010902101763370194
0.009519411649034627
0.008194586897200238
0.006945610193108798
0.005788825864257258
0.004737948039403612
0.0038030758578692712
0.0029898906193653423
0.00229920960234477
0.0017270223074805355
0.0012650439919896137
0.0009017117042362518
0.0006234523055974796
0.000416000518209468
0.0002655536699679361
0.00015961308529680723
8.745559271240755e-05
4.026949066542135e-05
1.1049810113397194e-05
-5.634379601760667e-06
-1.3906872351329824e-05
-1.6829793778168505e-05
-1.6609365621010833e-05
-1.4767207256069043e-05
-1.2289262390218677e-05
-9.759972886718612e-06
-7.481748392915292e-06
-5.575225860995946e-06
-4.0561395254276705e-06
-2.8881897847092596e-06
-2.0152344293772465e-06
-1.3783138451753074e-06
-9.227611579374384e-07
-5.976509847089621e-07
-3.406798260347263e-07
-1.522094813723644e-08
-9.721728415581377e-13
2.4948660061629286e-09
1.973937816476455e-08
9.168081980383828e-08
3.2257410873752433e-07
9.459812667371331e-07
2.428209525200929e-06
5.618167416157928e-06
1.194688312310526e-05
2.3672740627094843e-05
4.4159712205933154e-05
7.816687386374986e-05
0.0001321198946272565
0.0002143305018701465
0.00033512923303221373
0.0005068805358687921
0.000743857197245939
0.0010619622318481076
0.0014782993484905272
0.0020106063264692217
0.002676577530103374
0.0034931111030700427
0.004475522284960293
0.005636766442559928
0.006986713937639914
0.008531514371906808
0.010273080824269311
0.012208716312428517
0.01433089575409771
0.016627207957739528
0.019080454261023384
0.021668893787860754
0.02436662015006876
0.02714405084400117
0.029968508514610092
0.032804872509480415
0.035616279493446444
0.0383648530841503
0.041012444244332
0.04352136629096037
0.0458551106484607
0.047979031713241714
0.04986099127592986
0.05147195476623866
0.05278653307191848
0.05378346478929444
0.054446034457329005
0.05476242259202873
0.05472598316763807
0.0543354435961572
0.05359502127657409
0.0525144495105186
0.05110890418898819
0.04939882145339943
0.04740959600548619
0.045171150559517606
0.04271736992358352
0.04008539919726883
0.03731481513682388
0.03444669273053046
0.0315226041596899
0.028583601839699564
0.025669247017802693
0.02281674574171689
0.020060241178296398
0.01743028457933502
0.014953470889409213
0.012652188732148904
0.010544411620478374
0.008643460339647413
0.006957701572012911
0.005490209317260882
0.004238484903966624
0.003194381368387529
0.002344383178408518
0.0016703404529528024
0.0011506570646187817
0.0007618142898644605
0.00048001654366917895
0.0002827079631385272
0.0001497421429564109
6.407915328955333e-05
1.2000040126657627e-05
-1.707058501356812e-05
-3.098752332783042e-05
-3.540402843934382e-05
-3.427409540718497e-05
-3.027787999958262e-05
-2.5156219138962687e-05
-1.9967211854833386e-05
-1.5285228906126066e-05
-1.1358008034130832e-05
-8.229724450283488e-06
-5.83300810958262e-06
-4.052165147788569e-06
-2.761524363751471e-06
-1.843984295099275e-06
-1.192034690552586e-06
-6.779623678298592e-07
-2.9767660511277263e-08
3.0449457351855012e-12
7.35394349681027e-09
5.2193657616989695e-08
2.2508701538572158e-07
7.47396285084806e-07
2.088211965384365e-06
5.138749551299915e-06
1.1448947507624489e-05
2.3521204714640385e-05
4.514405952586159e-05
8.173619584511086e-05
0.00014066090764928556
0.00023146534493187758
0.00036599910258930125
0.0005583735581381022
0.0008247362091753791
0.0011828514688751307
0.0016514986086669193
0.00224971619517702
0.0029959380498208966
0.0039070766210735205
0.0049976146469438605
0.006278764900657866
0.007757751237311528
0.009437253269617432
0.011315043327123775
0.013383829530801864
0.01563130436692405
0.01804038532158932
0.020589623825738253
0.023253751452350365
0.026004328127083906
0.028810455879882072
0.03163952297437187
0.03445794656551363
0.03723188676091055
0.03992791051644565
0.042513589661695814
0.044958023094078474
0.04723227847528095
0.04930975338457463
0.05116645969982132
0.05278123793473582
0.05413591036611845
0.0552153830839729
0.05600770766094445
0.056504113044149346
0.05669901759700347
0.05659003002152522
0.056177946210908686
0.05546674692856683
0.05446359856648745
0.05317885606804187
0.051626063382638705
0.04982194258700996
0.04778635823890697
0.045542239051798675
0.043115435374383906
0.04053448939956571
0.03783029697305658
0.035035646727460144
0.032184634781639215
0.02931197073518891
0.02645221037600626
0.023638967414369532
0.020904164341401497
0.01827737561964126
0.01578529293606253
0.013451306529933104
0.011295159990260196
0.009332614239618802
0.007575064137118302
0.006029093783452551
0.004696025096418655
0.003571584645511293
0.0026458546927989384
0.0019036600269710694
0.0013254654919925828
0.000888738609117635
0.0005696067401942098
0.000344553847782943
0.00019188949843140882
9.278631055992915e-05
3.17966737201843e-05
-3.1167966347584797e-06
-2.0910471578614274e-05
-2.7984133730989436e-05
-2.8751386830249385e-05
-2.6155309738710232e-05
-2.2084284925801517e-05
-1.7685587675809506e-05
-1.3595897866241765e-05
-1.0111451589100052e-05
-7.3146717685196764e-06
-5.1668968319880255e-06
-3.572409771468783e-06
-2.4170833220364893e-06
-1.5811854893973702e-06
-9.070347965608178e-07
-3.992478405288682e-08
2.4195078834112195e-11
2.00074354474012e-08
1.297309928388236e-07
5.244562851896596e-07
1.6541751563722808e-06
4.4261009584534415e-06
1.0489664248194345e-05
2.2601437299479488e-05
4.505157502729329e-05
8.411654936380706e-05
0.000148488541523073
0.0002496230490299531
0.00040194535361839744
0.0006228643282561585
0.0009325578629311985
0.001353515763088186
0.0019098501897154825
0.0026264071333131325
0.003527731938898289
0.004636955235845079
0.005974671577601723
0.007557881603111404
0.009399060519890765
0.011505402802474916
0.01387827717886112
0.01651290924604711
0.019398293176380702
0.02251732029488562
0.025847101674208096
0.029359454669277824
0.03302151943853253
0.036796470597545664
0.04064429065115445
0.04452257509153334
0.04838734337591406
0.052193834822278226
0.05589727330669931
0.059453589159186346
0.06282009060537415
0.06595608036628291
0.0688234155706889
0.07138701097959049
0.07361528673441457
0.07548056250473797
0.07695940011741187
0.07803289658251344
0.07868692896800315
0.07891235187877972
0.07870514742218795
0.07806652654062435
0.07700297951056419
0.07552627229394776
0.07365338432853392
0.07140638229760356
0.06881222345287102
0.06590248119496808
0.06271298487678659
0.05928336529730383
0.0556564973865326
0.0518778327284859
0.0479946177664071
0.044054999976302744
0.040107035054349524
0.03619762350272376
0.032371423495272035
0.028669804781844846
0.025129919612054803
0.021783964320775208
0.018658684311540226
0.01577513601068196
0.01314867006608777
0.010789056205291239
0.008700650360495684
0.0068825227338245734
0.005328522171466447
0.0040273309273501316
0.0029626339659518277
0.002113555029837969
0.0014554770365714067
0.0009612707601020635
0.000602833177873228
0.000352730578237368
0.0001856928161687883
7.973299288598928e-05
1.6759890624427974e-05
-1.732708851628043e-05
-3.296231582189875e-05
-3.74973373981354e-05
-3.587683685378405e-05
-3.1278304246998175e-05
-2.564335768887437e-05
-2.00808668928467e-05
-1.5155653429747844e-05
-1.1089575395263303e-05
-7.90041714399645e-06
-5.49649085532912e-06
-3.736511664085312e-06
-2.4534651603921023e-06
-1.4101737031054303e-06
-6.172627562007298e-08
1.0131738318461464e-10
5.075361294185346e-08
3.0437075116994783e-07
1.1607806675174755e-06
3.491181883934261e-06
8.968810713615761e-06
2.050592584563305e-05
4.277719927100921e-05
8.278657468819185e-05
0.0001504141387872741
0.00025886629734475945
0.0004249500497233866
0.0006691018605093485
0.0010151226275546322
0.0014895995294032164
0.002121028684402351
0.0029386846766849477
0.003971309659202027
0.005245712662943195
0.006785377234250673
0.008609172538483952
0.010730250968881869
0.013155196434883025
0.015883464716155066
0.018907133415430866
0.02221095662202812
0.025772700301008783
0.029563719833541023
0.03354973154128926
0.037691725327901736
0.04194696521756146
0.046270027740200094
0.05061383385776148
0.05493063750068095
0.05917294193641359
0.06329432341812391
0.0672501493283766
0.0709981849766637
0.07449908911987985
0.07771680306534944
0.0806188418946887
0.08317649898540702
0.08536497671424097
0.087163457124816
0.08855512655251455
0.08952716782641114
0.09007073279354168
0.09018090658924158
0.08985667333614794
0.08910089079775957
0.08792027892892174
0.08632542424111102
0.08433079843389125
0.08195478586551859
0.07921971022426112
0.07615184635986524
0.07278139885919009
0.06914242490725958
0.06527267568407871
0.06121332858706623
0.05700858274069062
0.05270509362940171
0.048351230551055877
0.04399615415806449
0.03968873120433857
0.03547632879834672
0.03140355762404908
0.02751105662265803
0.02383442248525934
0.02040337840334172
0.01724124436266034
0.014364719972775438
0.011783933539001444
0.009502667336237072
0.007518657802128767
0.005823899868868377
0.004404949318333236
0.0032432910271445307
0.002315890458838872
0.0015960426702465267
0.001054569517426377
0.0006613104195366538
0.00038674434245714224
0.0002035139244427117
8.762470495027033e-05
1.9163133174747447e-05
-1.751072776949459e-05
-3.40270270082284e-05
-3.8580496388189254e-05
-3.664533805950078e-05
-3.168485849368109e-05
-2.5762124570527808e-05
-2.0013551351342013e-05
-1.4989040190419874e-05
-1.0883686248719482e-05
-7.690006689898953e-06
-5.292268916063178e-06
-3.506995628683971e-06
-2.025962567658931e-06
-8.848452137279794e-08
3.3574946340380234e-10
1.2099017076553076e-07
6.773635332466883e-07
2.449937227519331e-06
7.0513162561909155e-06
1.7437953917460565e-05
3.854322796145603e-05
7.798231969770635e-05
0.00014675092639397164
0.0002598202719015219
0.00043652553806237406
0.000700656059838049
0.0010801823667607178
0.0016065933140409821
0.002313859989292612
0.0032370849951017396
0.0044109299706956056
0.005867936437346359
0.007636863132704904
0.00974115717390401
0.012197658842455874
0.015015613996554605
0.01819603812086477
0.021731445720954996
0.025605931410066913
0.02979556691529775
0.03426906259268768
0.03898863315493106
0.04391100466609946
0.04898850239281545
0.05417016548479003
0.059402843291029676
0.0646322381090933
0.06980386923689638
0.07486394254199778
0.07976011785081083
0.08444217300982486
0.08886256840928868
0.0929769191670964
0.09674438422795541
0.10012798257599198
0.10309484684052125
0.10561642403728054
0.10766863224540231
0.10923198085000342
0.11029166071583568
0.11083760939156508
0.11086455523065813
0.11037204317223606
0.10936444384160635
0.10785094656726388
0.10584553580957105
0.10336694928219586
0.1004386146414505
0.09708855994902635
0.09334929113198552
0.08925762736484832
0.08485448274199098
0.08018457994599468
0.07529607912928887
0.07024010337473686
0.0650701415998423
0.05984131164670358
0.05460947188350206
0.04943018036240361
0.04435751746416942
0.03944281081601124
0.034733327699888884
0.030271024923019245
0.026091461433712063
0.022222976437175215
0.018686209774945655
0.015493992928772994
0.012651578366960682
0.010157120241069465
0.00800229116677124
0.006172931927974825
0.0046496824813791315
0.0034086147753656076
0.0024219493645995646
0.0016589578425856655
0.0010871164280167468
0.0006734920450109614
0.0003862429710752197
0.00019604276939991954
7.722048411748457e-05
8.459832236838578e-06
-2.7003449822006783e-05
-4.16396864886118e-05
-4.421044326232765e-05
-4.0517598764619875e-05
-3.416617136559952e-05
-2.723586793757857e-05
-2.0810916962926487e-05
-1.5363001752001025e-05
-1.1008425203068175e-05
-7.666403540747245e-06
-5.128118415376653e-06
-2.9784705127074463e-06
-1.2957298863337924e-07
9.667816572345216e-10
2.726680162102083e-07
1.4354184240586322e-06
4.945063646587852e-06
1.366034531597201e-05
3.2591023941502406e-05
6.975835313698496e-05
0.00013707336027634305
0.0002511097778561946
0.0004336378480772528
0.0007117969954615796
0.0011178186264768528
0.0016882597234093256
0.0024627650770678395
0.0034824315249630325
0.00478789293183167
0.006417273814351135
0.008404169654600833
0.010775803519692623
0.013551484744437708
0.016741461001184774
0.020346215594911444
0.024356222506323535
0.028752136796342483
0.03350537034960659
0.03857898399228016
0.04392881689509945
0.04950477199356751
0.055252180410869024
0.061113176748546924
0.0670280288016556
0.07293637814443504
0.07877836082463652
0.08449558916990842
0.09003198587230567
0.09533446980618138
0.10035349941683805
0.10504348412390666
0.1093630772449487
0.11327536573590326
0.11674797284370769
0.11975308982654415
0.12226745243253224
0.12427227700528194
0.12575317002395298
0.12670002366162422
0.12710690859518778
0.1269719738263405
0.12629736165391656
0.12508914413036482
0.12335728528434585
0.12111563103694338
0.11838192602523091
0.11517785343467016
0.11152909042265848
0.10746536782833788
0.10302051871190014
0.09823249603380738
0.09314333574680543
0.08779903810813279
0.08224933761078347
0.0765473311878264
0.07074893601656772
0.06491215326574976
0.05909612356531301
0.053359974902093016
0.04776148470973124
0.04235560466177245
0.037192926626172344
0.03231819625384753
0.02776899908714135
0.023574744272039105
0.01975604649545283
0.01632455724044518
0.013283230359494835
0.010626941455631825
0.008343336744938121
0.006413781717626394
0.004814316758366099
0.0035165922029180663
0.00248882124766389
0.0016968248205004011
0.0011052284621471857
0.000678809831949649
0.00038391148955232003
0.00018976389964484974
6.954005199552879e-05
9.98021899720432e-07
-3.335105470380379e-05
-4.651491261713284e-05
-4.761770916296708e-05
-4.2669707888523604e-05
-3.536131611547585e-05
-2.7772314089418212e-05
-2.093843243471316e-05
-1.526233036546118e-05
-1.0781001078323576e-05
-7.293033970839105e-06
-4.264006772615042e-06
-1.8487571111056546e-07
2.5148373385104927e-09
5.837353401282638e-07
2.9062954710674435e-06
9.571177815774487e-06
2.544141993431908e-05
5.867254087250132e-05
0.00012180265424114235
0.00023274854285187268
0.00041553591167970447
0.0007006026620029538
0.0011245543159829055
0.0017293138681806286
0.0025606830051875694
0.003666404775840064
0.005093877567644863
0.0068877082302647875
0.009087304550066552
0.011724694805971382
0.014822729355736626
0.01839377297756527
0.022438944679372148
0.026947910982547788
0.03189919487299656
0.03726092928025849
0.04299196264120678
0.04904321460127123
0.055359180667040674
0.06187949332966881
0.06854046121540201
0.07527652467215913
0.08202158371721571
0.08871017080317704
0.09527845530127567
0.10166507834784247
0.10781182556228798
0.11366415124312274
0.11917157130529456
0.12428794386934705
0.12897165651724796
0.1331857382394404
0.1368979124092645
0.14008060506228115
0.14271092058366644
0.14477059480133972
0.14624593356831336
0.14712774326510145
0.14741125828877993
0.14709606951081292
0.14618605684200564
0.14468932837372664
0.14261816797808646
0.1399889926300258
0.13682231992386026
0.13314274514319788
0.1289789256507988
0.12436356815493815
0.11933341148648315
0.11392919387058478
0.10819558940033394
0.10218109377246981
0.09593783476540349
0.08952127906514913
0.08298980471744603
0.07640410874342002
0.06982642350835783
0.06331952456796854
0.05694552809685445
0.050764498247060565
0.04483291329148706
0.03920207154590511
0.033916548550273505
0.02901283802791088
0.024518311882917806
0.020450611992459847
0.016817537513613597
0.013617423211808142
0.010839933099380111
0.008467140412949898
0.00647474770879846
0.004833326207558363
0.0035095115294119534
0.002467159137832592
0.0016685076379763368
0.0010754003736703258
0.000650573386107356
0.00035894974706113556
0.00016881848983075617
5.275084726961031e-05
-1.1868583550035427e-05
-4.2750523685021775e-05
-5.301900346487271e-05
-5.183515295211925e-05
-4.518461966772715e-05
-3.668827274285789e-05
-2.8328914094803008e-05
-2.103251270045687e-05
-1.5079478414310505e-05
-1.032181330532439e-05
-6.077822706156966e-06
-2.6249428051588174e-07
6.034227056021653e-09
1.191900394330208e-06
5.638842718181197e-06
1.7806633187354588e-05
4.564685711141584e-05
0.00010193197194107822
0.00020552415910360988
0.0003823626282710112
0.0006659570745125678
0.0010972217165284026
0.0017235636186726446
0.0025972357268829304
0.003773061314692192
0.005305715830193673
0.00724680264756066
0.009641975576263114
0.012528344278620002
0.015932355320229068
0.019868280927175946
0.02433738010221001
0.029327732066861855
0.03481468731494591
0.040761841309841715
0.04712241163131038
0.05384089040954831
0.06085484774374518
0.06809677515380111
0.07549587739214789
0.08297974286650892
0.09047584481833641
0.09791284533950718
0.10522169111681666
0.1123365029519148
0.11919527060653372
0.12574037071238447
0.1319189289059602
0.13768304862263944
0.1429899287215275
0.14780189085180845
0.15208633565201915
0.15581564482552535
0.1589670440854287
0.1615224400482855
0.16346824244628252
0.16479518153777653
0.16549812930696636
0.16557593191314088
0.16503125982403224
0.16387048108494112
0.16210356217022043
0.1597439997673983
0.15680878558316516
0.15331840475528696
0.14929686662025937
0.14477176433589994
0.139774357110093
0.1343396654823502
0.1285065662302454
0.12231786909173582
0.1158203527841977
0.10906473308902935
0.10210553156367598
0.09500081044357973
0.08781173840174164
0.08060195411138016
0.07343670119058447
0.06638172027653695
0.05950190262079853
0.052859734996550105
0.04651359685630673
0.04051600455258344
0.03491192848909489
0.029737329457590483
0.025018061438375445
0.020769263080558226
0.01699530775963767
0.013690309752001983
0.010839107490307441
0.008418584793526173
0.006399165801889528
0.004746337007894483
0.0034221025723623825
0.002386345078335741
0.00159811513752326
0.0010168883194011436
0.0006038018588680013
0.0003228310811826144
0.00014181383128318922
3.3207599498543326e-05
-2.5517254960137736e-05
-5.1888579126650236e-05
-5.881511294797749e-05
-5.5244223792030787e-05
-4.696333026850917e-05
-3.741413074919487e-05
-2.841590288244833e-05
-2.0726733375877528e-05
-1.437038375825264e-05
-8.523915594816386e-06
-3.667088877654086e-07
1.3530567974550243e-08
2.329154310892657e-06
1.0511810125518649e-05
3.191416471660413e-05
7.905284932028951e-05
0.00017119659132809544
0.0003356849620507602
0.000608693172754602
0.0010352163100970826
0.001668143919116195
0.002566420119770146
0.003792411007328749
0.005408706849886211
0.0074746547726199
0.010042940374475723
0.013156515362628731
0.016846111454662978
0.02112850152871136
0.026005581565570448
0.03146426413199072
0.03747710556607798
0.04400354019638123
0.05099156750779281
0.05837973063839794
0.06609923329302676
0.07407606237146591
0.08223301047640214
0.09049152166857735
0.09877331198334736
0.10700174099468633
0.11510293081624683
0.12300664393116267
0.13064694134843063
0.13796264841075764
0.1448976579539379
0.15140110032153295
0.1574274077958114
0.16293629802181417
0.1678926975339308
0.17226662295245695
0.17603303407647358
0.17917167012427027
0.1816668778448978
0.18350743816667703
0.18468639644454968
0.18520090017923693
0.1850520472558974
0.1842447472301084
0.18278759791043045
0.18069277937785339
0.17797596755937428
0.17465626943503706
0.1707561817825492
0.16630157490459876
0.16132170187318107
0.15584923228204722
0.14992030714821272
0.14357460830685423
0.13685543133678288
0.12980974579609497
0.12248822057623336
0.114945185957544
0.10723849818491804
0.0994292680512784
0.09158141328066766
0.08376099679918647
0.0760353206637447
0.06847175972089072
0.061136340768492926
0.05409210196328221
0.04739730183126681
0.04110358376197129
0.03525423413411582
0.02988269204455444
0.02501146736894741
0.0206515953024097
0.016802699068348765
0.013453655871245416
0.0105837803954088
0.0081643757879799
0.006160472360589808
0.004532587443849699
0.0032383893623687274
0.0022342141379826474
0.0014764390421996378
0.0009227415044655232
0.0005332589051323445
0.0002716258300302125
0.00010582386074759776
8.758998257861545e-06
-4.150329574144078e-05
-6.186880774991911e-05
-6.467303191818993e-05
-5.8375435227267314e-05
-4.8367871992623134e-05
-3.777374914732029e-05
-2.812624901206953e-05
-1.979373598596393e-05
-1.1839205535661783e-05
-5.072095480216796e-07
2.860804555512356e-08
4.369110492444988e-06
1.8872985080138972e-05
5.521530744364541e-05
0.00013239002195000616
0.00027843107698508106
0.0005315519356836845
0.0009403796273075748
0.001563090616637422
0.002465413550753028
0.0037176298337553183
0.005390844680530255
0.007552894724723
0.010264291673430778
0.01357457604196862
0.017519382189512576
0.022118413445469394
0.02737441347529531
0.03327311444610467
0.039784056650661016
0.04686211503381532
0.05444953716657019
0.06247829200145729
0.0708725438481033
0.07955109484021793
0.08842967518360088
0.09742299806518688
0.10644653105077286
0.11541796541093774
0.12425838779033437
0.13289317478982351
0.1412526409597674
0.14927247545971656
0.15689400346398363
0.16406430650790144
0.1707362324545144
0.17686832148294646
0.18242467009431348
0.1873747510197302
0.19169320333625897
0.19535960414821954
0.1983582308714719
0.20067782140311968
0.20231133817228006
0.20325574114284814
0.20351177417538538
0.2030837686648746
0.2019794679839867
0.20020987592390527
0.19778913199555592
0.19473441609802142
0.19106588464032603
0.18680663966813454
0.18198273182772398
0.17662319699723464
0.17076012500059864
0.16442875683820407
0.15766760415710143
0.15051858110081978
0.14302713415034654
0.13524235014542987
0.12721701660253265
0.11900760221894899
0.11067411986294615
0.10227983048993579
0.09389074564531064
0.08557489002067867
0.07740129540569582
0.0694387145246595
0.06175406821884047
0.05441067165269126
0.04746632241040546
0.04097137104956447
0.034966926127100326
0.029483362495531677
0.0245392954712238
0.02014114888169771
0.01628338261426816
0.012949363879789792
0.010112782479864494
0.007739444316092802
0.005789246803946397
0.00421815242067625
0.0029800258362183774
0.002028266659897615
0.0013172289368765435
0.00080345007291953
0.00044670917518355814
0.00021090712696714047
6.472826972621153e-05
-1.797255865127052e-05
-5.8101703632695415e-05
-7.158280387764843e-05
-6.989249041854636e-05
-6.078599466909805e-05
-4.909524406254626e-05
-3.746426523163142e-05
-2.6830420391470183e-05
-1.620439916534707e-05
-6.912462987686711e-07
5.741419630442238e-08
7.888229649412e-06
3.2706036293936106e-05
9.239268905926164e-05
0.00021476975925236065
0.000439210643703035
0.000817259620183588
0.001411943250618679
0.002295685927252063
0.0035469577915271076
0.005245973798417563
0.007469892488269052
0.010288014058786783
0.013757449684010714
0.01791964262502591
0.022797990392832396
0.028396672401867
0.034700652550819513
0.041676717846824675
0.04927534155876447
0.05743312406579449
0.06607556245159503
0.07511992333207236
0.08447803333924093
0.09405884938558647
0.10377071904023616
0.11352328483065766
0.12322902192018442
0.13280442513573215
0.14217087888656846
0.1512552532169408
0.15999027265911095
0.16831470342329574
0.1761734003913623
0.1835172497300717
0.19030303674774973
0.19649326260796252
0.20205592812697293
0.20696429833655464
0.21119665784553895
0.21473606423181923
0.21757010463202525
0.21969065923589087
0.2210936744046364
0.22177894750098975
0.2217499251488089
0.22101351646190848
0.21957992274453875
0.21746248523469788
0.21467755260835236
0.21124437015903444
0.20718499277459515
0.20252422399342845
0.19728958345097078
0.19151130480417433
0.18522236559032648
0.17845854924671367
0.1712585374783807
0.16366402810718708
0.15571986930780515
0.1474741956805004
0.1389785450447789
0.1302879275271241
0.12146081113409583
0.11255898156711056
0.10364722989562124
0.0947928214611109
0.08606470472990779
0.0775324312954792
0.069264778917172
0.061328098533534325
0.05378444236218431
0.04668957035156813
0.04009097101500862
0.03402606260064432
0.02852075303499907
0.02358852433523444
0.01923016501724682
0.01543420465837803
0.012178018449044701
0.009429483574250493
0.007149003777598524
0.0052916900260827834
0.003809500221725415
0.002653192199656277
0.0017740128320341338
0.0011251082155855484
0.000662676747148428
0.00034689190325053686
0.00014260266508156597
1.979442664553027e-05
-4.6219678923850406e-05
-7.489725144321458e-05
-8.084386221421598e-05
-7.441601485226127e-05
-6.245500456536069e-05
-4.9010751959146134e-05
-3.5810761498844055e-05
-2.187384754947168e-05
-9.289036102974903e-07
1.099396816916264e-07
1.374029534583392e-05
5.481671628636458e-05
0.0001497931759691609
0.0003380488563021804
0.0006730119031469019
0.001221810403406376
0.0020632181691453526
0.0032839988700612012
0.004974008548103916
0.00722059869048914
0.010102941738474664
0.013686875464458867
0.018020750692727495
0.02313260016552305
0.029028760671582814
0.03569390761802083
0.04309232380594985
0.05117013412863311
0.059858196926507866
0.0690753447209266
0.07873170128208103
0.08873185610474535
0.09897773973584591
0.10937110462370965
0.11981556974797274
0.13021822965449945
0.14049085854119017
0.15055075841185028
0.16032130885398946
0.16973227703655971
0.17871994245117492
0.1872270838667172
0.19520286764622272
0.2026026682317527
0.209387844040183
0.21552548566079924
0.22098814825059723
0.22575357633635407
0.22980442668708403
0.23312799329355702
0.2357159375487196
0.23756402624721398
0.23867187983110144
0.23904273326094325
0.2386832118871776
0.23760312467524
0.2358152770707248
0.2333353056748354
0.23018153674924552
0.2263748704049699
0.22193869217135628
0.21689881349497284
0.21128344256455744
0.2051231866402858
0.19845108667834954
0.19130268432588887
0.1837161201055236
0.17573225956482905
0.16739484108119618
0.15875063468152298
0.14984959557432123
0.1407449892220009
0.13149345712342453
0.12215498482222775
0.11279272719957104
0.10347264241729491
0.09426288676839974
0.08523293002138971
0.07645236618497411
0.0679894188460373
0.059909173045461346
0.0522716050751746
0.04512952354290559
0.038526573288189675
0.032495480198768106
0.027056721100994652
0.02221778173522965
0.017973114776678095
0.014304833119199887
0.011184083158256168
0.008572956673997765
0.006426737837224897
0.004696258854623166
0.003330158351988417
0.0022768922353798506
0.0014864183400232036
0.0009115409446298785
0.000508941635668413
0.00023993325446266013
7.0961002195809e-05
-2.6145045293993275e-05
-7.417251151760061e-05