# vtk DataFile Version 4.1 
COMMENT
ASCII
DATASET STRUCTURED_POINTS 
DIMENSIONS 100 100 1 
ORIGIN 0 0 0
SPACING 0.12693303650867893 0.12693303650867893 0 
POINT_DATA 10000
SCALARS U double 1
LOOKUP_TABLE default
0.0
0.0
0.0
0.0
0.0
0.0
0.0
0.0
0.0
0.0
0.0
0.0
0.0
0.0
0.0
0.0
0.0
0.0
0.0
0.0
0.0
0.0
0.0
0.0
0.0
0.0
0.0
0.0
0.0
0.0
0.0
0.0
0.0
0.0
0.0
0.0
0.0
0.0
0.0
0.0
0.0
0.0
0.0
0.0
0.0
0.0
0.0
0.0
0.0
0.0
0.0
0.0
0.0
0.0
0.0
0.0
0.0
0.0
0.0
0.0
0.0
0.0
0.0
0.0
0.0
0.0
0.0
0.0
0.0
0.0
0.0
0.0
0.0
0.0
0.0
0.0
0.0
0.0
0.0
0.0
0.0
0.0
0.0
0.0
0.0
0.0
0.0
0.0
0.0
0.0
0.0
0.0
0.0
0.0
0.0
0.0
0.0
0.0
0.0
0.0
2.236506708701346e-13
-1.0969737909565944e-10
-1.2173757024665246e-09
-6.91696959803589e-09
-2.8211229068150425e-08
-9.316086211243865e-08
-2.643857426346432e-07
-6.677307206220646e-07
-1.5352597200581932e-06
-3.264816904121772e-06
-6.496602258040222e-06
-1.2204639300256199e-05
-2.179794574115738e-05
-3.7223094099513696e-05
-6.105719378761968e-05
-9.657865038299043e-05
-0.00014780275925825682
-0.00021947047428638535
-0.0003169815288077167
-0.0004462672152589652
-0.0006136031046260868
-0.0008253672465029981
-0.0010877543478457466
-0.0014064605537620351
-0.0017863563416266486
-0.0022311664513015713
-0.002743175649371515
-0.003322977570585144
-0.003969281135194656
-0.004678785435531739
-0.005446129888348896
-0.006263922226163129
-0.007122842875226973
-0.008011820698114557
-0.008918272144563196
-0.009828393653265866
-0.010727495703154852
-0.011600366186493497
-0.012431650682462263
-0.013206237633725953
-0.013909637240450712
-0.01452834395667306
-0.015050173683459284
-0.015464568000976349
-0.01576285899021572
-0.015938489314336907
-0.015987183237241253
-0.01590706515873858
-0.015698723073232026
-0.015365215166101186
-0.014912018618406834
-0.014346920670864731
-0.01367985316701512
-0.012922673187988554
-0.012088893989124369
-0.01119337215971122
-0.01025195857450723
-0.009281122040559066
-0.00829755529175777
-0.007317772937412537
-0.006357710105591913
-0.005432329116558803
-0.004555240218097991
-0.003738342143270769
-0.0029914899713699176
-0.0023222020356025988
-0.001735424064618081
-0.0012333757387876885
-0.0008155095418571131
-0.00047861079147735016
-0.00021705829725532645
-2.3246578781679597e-05
0.00011185452981591644
0.00019805313464413737
0.00024527129988058237
0.00026294030970266756
0.000259521872257566
0.00024219759751623358
0.00021673671937807684
0.00018752081436351818
0.00015768250176454547
0.00012930725954530357
0.00010365290048561238
8.135508623883667e-05
6.260304283935314e-05
4.7282083572695895e-05
3.508626396172869e-05
2.5606100534985087e-05
1.839512591266123e-05
1.3017549425338585e-05
9.078797938486748e-06
6.24128830029969e-06
4.228715127389574e-06
2.822657393022869e-06
1.855066826105574e-06
1.1993134177760897e-06
7.611732500451185e-07
4.6908463242476297e-07
2.568675346497385e-07
1.1206343006168573e-08
4.600704588430143e-13
-3.8299620932011714e-10
-3.4361728019307824e-09
-1.7230709921797052e-08
-6.40720311676675e-08
-1.9618411903361086e-07
-5.216002859158041e-07
-1.2428131126235102e-06
-2.709486572512519e-06
-5.484439242178509e-06
-1.041938440209081e-05
-1.8733979341803273e-05
-3.208913947709078e-05
-5.26438737265144e-05
-8.30845451504525e-05
-0.00012661668948953697
-0.00018691229727908152
-0.0002680094772345645
-0.00037416615259356137
-0.0005096742654154023
-0.0006786452397928809
-0.0008847806463459192
-0.0011311437562530327
-0.0014199478277132592
-0.0017523756004683927
-0.002128441835708462
-0.0025469072056966057
-0.0030052478460282474
-0.003499680866367554
-0.0040252424501306975
-0.004575912146540433
-0.005144774748619874
-0.005724209828736497
-0.006306098544461711
-0.006882037632544879
-0.007443551428861272
-0.007982294113423492
-0.008490236004583108
-0.008959829451169821
-0.00938415155556774
-0.009757022494767589
-0.010073099511862284
-0.01032794767831425
-0.010518089254017227
-0.010641033894538358
-0.010695292085605204
-0.010680374048965666
-0.01059677599731531
-0.010445955067304422
-0.010230293592667097
-0.009953052679302854
-0.009618314422124439
-0.009230911699352544
-0.008796344454817275
-0.00832068189342086
-0.0078104511867298065
-0.0072725151237472896
-0.006713943467220464
-0.006141885150290764
-0.005563450153123236
-0.004985610013988183
-0.004415123555848596
-0.003858489043850275
-0.003321915970789298
-0.002811300540287696
-0.0023321814648219223
-0.0018896504339127906
-0.0014881976668861267
-0.0011314885820317634
-0.0008220907870221555
-0.0005611956332794922
-0.0003483971561659695
-0.0001815950112454033
-5.70721305437918e-05
3.0236306182745726e-05
8.630988084266799e-05
0.00011751359443290627
0.0001300633429013803
0.00012957594495924263
0.00012076778911111387
0.00010732562124059108
9.19316704320807e-05
7.639621790216213e-05
6.184074452927397e-05
4.888281843035876e-05
3.7792566194687347e-05
2.861056619368008e-05
2.1231212291002757e-05
1.546145428080261e-05
1.1063961795430195e-05
7.789886147546383e-06
5.402884546570759e-06
3.6945554718187786e-06
2.491752253034082e-06
1.6572950332742137e-06
1.0863158938504613e-06
7.002503587612993e-07
4.3876263551357865e-07
2.4381431667627264e-07
1.0869344040181006e-08
4.879918366787757e-13
-1.2522375542001827e-09
-9.891922843805039e-09
-4.586557756184851e-08
-1.6108223759359097e-07
-4.714750693019924e-07
-1.2077272763885856e-06
-2.7882546056551614e-06
-5.9155574940133746e-06
-1.1693396256567396e-05
-2.1757869868094363e-05
-3.8411105260539145e-05
-6.474270448612495e-05
-0.0001047220947046027
-0.00016324499239257455
-0.0002461195018676795
-0.0003599817225312626
-0.0005121366168927131
-0.0007103265486004054
-0.0009624365067293607
-0.0012761508109027967
-0.0016585804259374817
-0.002115882522682942
-0.002652894478922361
-0.0032728032343772263
-0.003976868098901042
-0.004764211185384819
-0.005631685071037487
-0.006573822541598363
-0.007582868740434304
-0.008648892034832307
-0.009759966627933407
-0.010902417488230155
-0.01206111655266698
-0.013219818328327847
-0.014361522867884297
-0.01546885449452006
-0.016524445462308295
-0.017511314821211058
-0.01841323398848502
-0.019215071805612743
-0.01990311309837488
-0.020465345894813847
-0.02089171344837706
-0.021174328034782083
-0.02130764412789707
-0.021288589009409557
-0.0211166491346483
-0.020793910675077246
-0.02032505260735492
-0.01971729055267697
-0.01898026934297567
-0.0181259020921455
-0.017168153523183575
-0.0161227656578845
-0.015006925002419798
-0.013838872404343968
-0.012637460151672724
-0.011421665839197789
-0.010210078935159026
-0.00902038321915997
-0.007868865039011826
-0.006769981716462858
-0.005736024163023688
-0.004776900939775198
-0.0039000569819647246
-0.0031105205593952305
-0.0024110508793465163
-0.0018023421865861456
-0.0012832346700709669
-0.0008508920374620728
-0.000500929570167676
-0.00022750823526137792
-2.34388271292786e-05
0.00011964682518237715
0.0002110104821691722
0.0002603930000675096
0.0002775000122229642
0.00027145724859994316
0.00025032536121934775
0.00022075634880153834
0.0001878403700948068
0.00015514540869372744
0.0001249096128213641
9.832084354116308e-05
7.581536491435408e-05
5.73437673740703e-05
4.257721680387049e-05
3.105038524737874e-05
2.225214047414872e-05
1.5679882486564683e-05
1.0871164178376072e-05
7.421272582156127e-06
4.9911829842967324e-06
3.3080971245240545e-06
2.160236187755549e-06
1.3873309649989298e-06
8.660984271643072e-07
4.793601097459206e-07
2.1050022314898094e-08
-1.533749487474775e-12
-3.704302372496767e-09
-2.6255676639886103e-08
-1.1305708893407177e-07
-3.747794828728136e-07
-1.0452469062598677e-06
-2.5672405737459284e-06
-5.708037116275563e-06
-1.170149083790585e-05
-2.2407392050516814e-05
-4.047275063456055e-05
-6.947480428711073e-05
-0.0001140230616881751
-0.00017979831684682767
-0.00027351052086389187
-0.00040276428621819434
-0.0005758297289390965
-0.0008013260968401034
-0.001087834859374451
-0.001443466449061183
-0.0018754097605955817
-0.0023894953653137
-0.002989802161224524
-0.003678333219391739
-0.004454780561779615
-0.005316391329792549
-0.00625794012415403
-0.007271804985154791
-0.008348138151619692
-0.009475117803370027
-0.010639263665248087
-0.011825797652445959
-0.013019030536392771
-0.014202756670292391
-0.015360640835325515
-0.016476583935089842
-0.017535057273611803
-0.01852139823515291
-0.01942206312696945
-0.020224835590174246
-0.020918991224453305
-0.0214954208536115
-0.021946716164457234
-0.022267222295079873
-0.02245306236436082
-0.02250213896901658
-0.022414117379307708
-0.022190394591428204
-0.02183405759112835
-0.021349833190111547
-0.02074403064653695
-0.02002447699775216
-0.01920044363700117
-0.01828256118177417
-0.017282718160450735
-0.016213937593395532
-0.01509022436967918
-0.013926375762618149
-0.012737747977614199
-0.01153997387725261
-0.010348631529367575
-0.009178870215800957
-0.008045009618411212
-0.006960137707439519
-0.005935741002069025
-0.004981404269790511
-0.00410461249347681
-0.00331067468439597
-0.002602768282178369
-0.0019820792894291606
-0.001447994414257905
-0.000998295114744059
-0.0006293142673599279
-0.0003360428467786118
-0.0001122080802894907
4.962725486934743e-05
0.00015788542449931054
0.00022167161541872038
0.00025034493908816796
0.0002530053953174413
0.0002379768736743939
0.0002123786000314988
0.0001818596311155855
0.00015053004841071642
0.00012107417124510894
9.499265188851885e-05
7.290310166224702e-05
5.483452965988693e-05
4.047224162733287e-05
2.9335831471556407e-05
2.089384628769148e-05
1.4629884365437273e-05
1.0076814852201183e-05
6.832181867927715e-06
4.56277325902499e-06
3.0023423014452654e-06
1.9438527342387883e-06
1.2238430015581088e-06
6.819693655821215e-07
2.9987096312483305e-08
-1.2234721980164217e-11
-1.0117041911639178e-08
-6.552336256045342e-08
-2.645184667243661e-07
-8.330042991480715e-07
-2.22505353386024e-06
-5.2634869670896605e-06
-1.1318347650830713e-05
-2.2513114044862427e-05
-4.194013366312106e-05
-7.385979783239646e-05
-0.00012385402293424848
-0.0001989047570532385
-0.00030737283501353383
-0.0004588610682684622
-0.0006639567747792811
-0.0009338613748400019
-0.0012799264331875984
-0.0017131250527495656
-0.0022434937076455936
-0.002879581908332768
-0.003627945574201347
-0.004492715199655547
-0.005475262730488121
-0.006573982569195132
-0.007784193340708984
-0.009098158868696693
-0.010505219902125234
-0.0119920228934412
-0.01354282871011351
-0.015139882492936093
-0.01676382573334267
-0.01839413270985247
-0.020009555345714063
-0.021588562980499864
-0.02310976618451392
-0.024552316343705735
-0.025896275128734526
-0.027122950023762454
-0.02821519377306
-0.029157666895039576
-0.029937063333557536
-0.030542299904327545
-0.030964670498818427
-0.031197966080108098
-0.031238561393530536
-0.031085469063620527
-0.030740361397168556
-0.030207559796210467
-0.029493991239773844
-0.028609110856131395
-0.027564789218226558
-0.026375162696407484
-0.025056445036628915
-0.02362669833577148
-0.02210556178786945
-0.02051393700222581
-0.018873629389327216
-0.01720694616815863
-0.015536253161233847
-0.013883495029132617
-0.012269687364694264
-0.010714394476405204
-0.009235213766762252
-0.007847295676815623
-0.00656293552785723
-0.00539127751801596
-0.004338168393314431
-0.0034061863314153416
-0.002594848977382195
-0.0019009764955475524
-0.001319157828955842
-0.000842250174679113
-0.00046184104430891374
-0.00016862230421328314
4.733826203421306e-05
0.00019640200079515806
0.0002891860900025016
0.0003363515680596266
0.00034831418418979337
0.00033488056056100703
0.0003048556143185166
0.00026569488392311143
0.0002232757926241763
0.00018183517643401896
0.0001440780080325345
0.00011142099116377824
8.430905085087511e-05
6.253899852863702e-05
4.553966524054717e-05
3.258217307316051e-05
2.291738786872958e-05
1.5853054762753287e-05
1.0788904015397018e-05
7.226436508579393e-06
4.7649609537731635e-06
3.089385194351736e-06
1.946795974901434e-06
1.084564729654773e-06
4.7456927776449936e-08
-5.144408922867135e-11
-2.5769656309275686e-08
-1.5437911419834767e-07
-5.879959319462878e-07
-1.7658503936261954e-06
-4.529015392826819e-06
-1.0336470948901974e-05
-2.1521336258166015e-05
-4.156452090954103e-05
-7.535298696952521e-05
-0.0001293836773481453
-0.00021187366207795055
-0.00033274280722335887
-0.0005034466847646398
-0.0007366528552669341
-0.0010457707249380294
-0.0014443613700988274
-0.0019454667865106186
-0.0025609063585281303
-0.003300591194193478
-0.0041719044303316485
-0.005179188485886855
-0.006323369826954542
-0.007601739618448163
-0.009007896164469203
-0.010531843554620456
-0.012160231373763456
-0.013876713254737886
-0.015662397650194355
-0.017496362359765226
-0.019356204740091313
-0.021218601682956667
-0.023059856854299933
-0.024856416840323765
-0.026585342300543737
-0.028224724619834093
-0.029754042614666226
-0.031154457406221133
-0.03240904652837647
-0.033502980659759644
-0.034423648071814784
-0.03516073301637777
-0.03570625490129754
-0.03605457529210443
-0.03620237960032905
-0.036148639835738135
-0.0358945640604407
-0.035443537225707714
-0.03480105692505524
-0.033974666280070225
-0.03297388470717347
-0.03181013571802701
-0.030496669221646924
-0.029048474083267845
-0.027482175044126363
-0.02581590664108461
-0.02406915564027325
-0.022262562895588735
-0.020417675662845126
-0.018556642467660683
-0.016701844895501975
-0.014875464442290518
-0.013098988151742636
-0.011392664417740866
-0.00977493001174477
-0.00826184046420815
-0.006866546785362181
-0.005598869430877429
-0.0044650218468259145
-0.003467527434235029
-0.002605353596914835
-0.0018742562475650784
-0.0012672935569524406
-0.0007754381654542617
-0.00038820264933879273
-9.420054703042935e-05
0.00011840560645924514
0.00026157584171678595
0.00034715073918838325
0.0003866403889037907
0.0003909929832754678
0.0003703200540242022
0.00033359523821304137
0.0002883770565161187
0.0002406187662457369
0.00019461486005359902
0.0001531006701710914
0.00011748302709871364
8.815094987027898e-05
6.480500956824641e-05
4.675263316093207e-05
3.313730132353228e-05
2.309266779295403e-05
1.583024875907902e-05
1.0678029549421847e-05
7.087761665929643e-06
4.623092884406806e-06
2.927785099678889e-06
1.6354110329870725e-06
7.137183265978036e-08
-1.7121153865089585e-10
-6.169568473502513e-08
-3.450731255605391e-07
-1.2465741110784184e-06
-3.582791724490815e-06
-8.846303301634147e-06
-1.951923458663042e-05
-3.941818240510708e-05
-7.402979586131619e-05
-0.00013078699036129946
-0.00021923394472647006
-0.00035103476958361717
-0.0005397953310388386
-0.0008006879046195129
-0.0011498908536395694
-0.0016038768282618777
-0.0021785999472824784
-0.002888642888320772
-0.003746387827728174
-0.004761271008532182
-0.005939170634507283
-0.007281963688590428
-0.008787271293588226
-0.01044839639928739
-0.012254443545505509
-0.014190599346916763
-0.016238544746018612
-0.01837696605153959
-0.02058213098827633
-0.022828497833635407
-0.025089329478161317
-0.02733728917814596
-0.029545000193527373
-0.03168555687200019
-0.03373297964564925
-0.035662610591731245
-0.037451449547911034
-0.03907843324351975
-0.04052466156839276
-0.041773576054634214
-0.042811096024039666
-0.04362571779025239
-0.044208581927306534
-0.04455351303558844
-0.04465703574179389
-0.04451836992814207
-0.044139407443366606
-0.04352467183010939
-0.04268126192040782
-0.04161877950042653
-0.040349240615995485
-0.03888696946585559
-0.037248473194395344
-0.03545229524163174
-0.0335188442412704
-0.03147019480643138
-0.02932985596549632
-0.027122502601041702
-0.024873665133581146
-0.022609373046540468
-0.020355748875286656
-0.018138551229543772
-0.01598266858059764
-0.013911570250225278
-0.011946727577264395
-0.01010702669133563
-0.008408204272933015
-0.006862347850578163
-0.005477510195660743
-0.004257489846753763
-0.003201823093583004
-0.0023060143939094865
-0.0015620025890552417
-0.0009588240090165344
-0.00048339927207506487
-0.00012134889470793753
0.0001422575614428685
0.00032229056860579806
0.00043311824802386254
0.0004883169014008576
0.0005004846058660032
0.0004810975782784858
0.00044036479312213573
0.0003870696996461617
0.0003284229481156927
0.00026997100542664555
0.00021560386921525696
0.00016768287513406024
0.00012727768588844518
9.447372564605766e-05
6.869779794182524e-05
4.901320403348979e-05
3.435195983231429e-05
2.3672479467706213e-05
1.6048565185139998e-05
1.0705069864389872e-05
7.015294929579208e-06
4.4604886210606815e-06
2.4962913552772163e-06
1.0853168120859173e-07
-4.952008922687683e-10
-1.396598954360292e-07
-7.345690916830782e-07
-2.527720334992404e-06
-6.9732197256098035e-06
-1.661148208632776e-05
-3.549576445709003e-05
-6.962074272448406e-05
-0.00012728938033152305
-0.00021934994974800488
-0.0003592423536237939
-0.0005628111724627191
-0.0008478691679377732
-0.0012335248133340977
-0.0017393158658167126
-0.0023842136752229726
-0.003185576824005272
-0.0041581365257532255
-0.005313090400119606
-0.006657367589581755
-0.00819310934041337
-0.009917388074277236
-0.011822167355724037
-0.013894487180213544
-0.016116845087908803
-0.01846773440088727
-0.02092229635985182
-0.02345304256561578
-0.026030607058786938
-0.028624492612971297
-0.03120378240311598
-0.03373779529225536
-0.036196669886966786
-0.03855186877291873
-0.04077659967426098
-0.0428461545615539
-0.04473817096223926
-0.0464328219886782
-0.04791294302335225
-0.049164103740681725
-0.05017463435074401
-0.05093561475783085
-0.051440834849663976
-0.05168673345921464
-0.05167232273337927
-0.05139910374154115
-0.050870978183360754
-0.05009416001491616
-0.049077089700606695
-0.0478303526037336
-0.04636660173867752
-0.044700483713492806
-0.04284856519545892
-0.040829255653326776
-0.03866272051399518
-0.036370777296882824
-0.03397676587472735
-0.03150538291581048
-0.02898246998998273
-0.026434744998866874
-0.023889467761053423
-0.021374032979872826
-0.018915487652318545
-0.016539975410779412
-0.014272117433844553
-0.012134348420669832
-0.010146236472137502
-0.008323826898781344
-0.006679060596193702
-0.005219325365639195
-0.003947200206847106
-0.0028604446992588576
-0.0019522656266827254
-0.0012118611264204991
-0.0006252030000582363
-0.00017597874168651537
0.00015341287280047516
0.0003809254076061624
0.0005240814905481762
0.0005993960460277977
0.000622009388958755
0.0006054901168732182
0.000561744955687893
0.00050097631936493
0.0004316532982487644
0.00036049467314200925
0.000292487868005703
0.000230974999916231
0.0001778251165584912
0.00013368787056811557
9.830003610461739e-05
7.080250576908843e-05
5.00259175020235e-05
3.4715449556776376e-05
2.368293217884904e-05
1.5889722718816304e-05
1.0469836943816576e-05
6.6881965042569125e-06
3.7520029931656182e-06
1.6254885511259483e-07
-1.294067544180513e-09
-3.003622625801595e-07
-1.4942090275323041e-06
-4.915459496536134e-06
-1.3048983625699572e-05
-3.0048922905278937e-05
-6.227857235331546e-05
-0.00011879280341466906
-0.00021167459681153272
-0.0003561442295280137
-0.0005703819589913809
-0.0008750388657101729
-0.0012924497495486744
-0.0018455997470214348
-0.00255692651708408
-0.0034470581929597808
-0.004533592039440677
-0.0058300105406903216
-0.007344813053645311
-0.009080915937981942
-0.011035346294649492
-0.013199227823601745
-0.015558034708599509
-0.018092072630418045
-0.020777135689033503
-0.02358528394442124
-0.026485687560015014
-0.029445488863617936
-0.032430641613267586
-0.0354066960336522
-0.038339507647639146
-0.041195856722655314
-0.0439439727310042
-0.04655396430091752
-0.048998159642260036
-0.051251365456696375
-0.053291054077092455
-0.05509748926656309
-0.05665380099808671
-0.05794601887064263
-0.05896307280598594
-0.05969676848105894
-0.06014174371360502
-0.060295410823663874
-0.060157888898704666
-0.059731928924744625
-0.05902283391680731
-0.058038375478366565
-0.05678870761537785
-0.05528627808893142
-0.053545737065267184
-0.05158384226067472
-0.04941935912781726
-0.04707295384023054
-0.044567075868322856
-0.041925825794943895
-0.039174802724745536
-0.03634092428916335
-0.03345221099725178
-0.030537525765815046
-0.027626259182702728
-0.02474795176484358
-0.021931846530716143
-0.019206368947499396
-0.016598536988394964
-0.01413331176463761
-0.011832908894360495
-0.009716102034101155
-0.007797561933272012
-0.006087285375085171
-0.0045901759780640405
-0.0033058398359093154
-0.0022286499869237203
-0.0013481123411581376
-0.0006495321115830518
-0.00011493803143608829
0.0002758201220768576
0.000543916111040477
0.0007104592917276898
0.0007955831346053084
0.0008177791354088337
0.0007934921912624987
0.0007369437625504132
0.000660117378289283
0.0005728351278266239
0.0004828713648134798
0.00039607977146809495
0.000316537591188299
0.00024672484113200967
0.00018775309255250174
0.00013964269163266934
0.00010162867734596938
7.246338890067736e-05
5.068261297316597e-05
3.4811014453171627e-05
2.349569805066578e-05
1.5564401659138084e-05
9.987347849122264e-06
5.615151524916118e-06
2.4231970444364674e-07
-3.119702674598706e-09
-6.161861056859939e-07
-2.912895521208796e-06
-9.188910094349253e-06
-2.352600801503415e-05
-5.245939432860269e-05
-0.00010560357634056
-0.00019612170751566235
-0.0003409297455525455
-0.0005605528910047427
-0.0008785945183310672
-0.0013208290093666242
-0.001913980037052356
-0.0026842863079567965
-0.003655981544187577
-0.004849822021360101
-0.006281784166846983
-0.007962030155736773
-0.0098942063042612
-0.012075102940254413
-0.014494670323718184
-0.017136356839697126
-0.01997771528891319
-0.02299121135138626
-0.02614516464866228
-0.029404755884527244
-0.032733041463064765
-0.036091927842562564
-0.03944306994115021
-0.04274866976568688
-0.04597216210053329
-0.04907878298221921
-0.052036023561722766
-0.05481397684596565
-0.05738558792056309
-0.05972681989199341
-0.06181674828863144
-0.0636375963537445
-0.06517472283547932
-0.06641657275918883
-0.06735460042716773
-0.06798317264604714
-0.06829945900212818
-0.06830331492264338
-0.06799716228241422
-0.06738587142879125
-0.06647664768019762
-0.06527892457622685
-0.06380426538860706
-0.062066273610443125
-0.060080512294611324
-0.057864431181312743
-0.055437299513118765
-0.05282014126296906
-0.050035668187190574
-0.04710820467116688
-0.04406359679865875
-0.040929096528273146
-0.03773321043940637
-0.03450550141908076
-0.03127633117443946
-0.02807653190803607
-0.024936997254235434
-0.02188818600650006
-0.018959537563027765
-0.01617880554738225
-0.01357132568683219
-0.011159245441971041
-0.008960755387304752
-0.006989374744266286
-0.005253353912194769
-0.0037552627554089126
-0.002491831664726093
-0.0014540999501597885
-0.0006279010219636629
5.3232668909285805e-06
0.0004674314003699265
0.0007823102588379538
0.0009745508791241135
0.001068210848752442
0.0010857855407201426
0.0010474686718691987
0.0009707263889901642
0.0008701539197180863
0.0007575450803062814
0.0006420916874187376
0.0005306416180653483
0.0004279714936214995
0.0003370590989418317
0.0002593599771485166
0.00019509702392495683
0.00014356383314470243
0.00010342954697713266
7.30231124146446e-05
5.057272833796481e-05
3.438068470588883e-05
2.2915596119895258e-05
1.4775751177724745e-05
8.325365551863743e-06
3.5783937667462976e-07
-7.0290380081618334e-09
-1.2099201169273268e-06
-5.456522466488221e-06
-1.6549540414661246e-05
-4.0944035562005265e-05
-8.85436925727842e-05
-0.00017334427588038679
-0.00031377688658107536
-0.0005326361365389434
-0.0008565313177890996
-0.001314864907307156
-0.001938409222301237
-0.0027576065778019397
-0.0038007522560198196
-0.005092229182942904
-0.0066509494933477435
-0.008489126057426945
-0.010611453673637493
-0.013014732659452946
-0.015687923756558815
-0.018612587559847245
-0.021763636848267067
-0.025110316923900335
-0.028617326370305247
-0.03224599644247951
-0.03595545900313492
-0.03970374790262418
-0.04344879466638316
-0.047149294529554145
-0.05076543205520289
-0.05425946615329814
-0.057596182100949356
-0.060743223301495945
-0.06367131837127593
-0.06635442017049224
-0.06876977307994886
-0.0708979236130482
-0.07272268771771304
-0.07423108615924404
-0.07541325739468986
-0.07626235549217163
-0.07677443899611676
-0.07694835522843345
-0.07678562335195845
-0.07629031859130657
-0.07546895928055461
-0.07433039785302224
-0.07288571646778436
-0.07114812763929289
-0.06913287995596504
-0.06685716869166394
-0.06434005077623413
-0.061602363138368046
-0.058666642804328706
-0.055557046270948963
-0.052299264525215584
-0.048920428636925896
-0.04544899913182598
-0.041914630452676675
-0.0383479999131423
-0.034780588922737055
-0.031244403290594466
-0.02777161956595309
-0.02439414614991473
-0.021143091795558802
-0.01804814046568795
-0.01513684048830451
-0.012433827374763432
-0.009960012974203826
-0.007731787767891991
-0.005760296422737539
-0.004050856963869839
-0.0026025982593145276
-0.0014083858193797267
-0.00045508946184849596
0.00027578310612924275
0.0008071038494617736
0.001164857756085178
0.0013767018802074275
0.0014704920118568832
0.0014729278334337825
0.00140844814500689
0.0012984627884902332
0.0011609477980352486
0.001010370690727212
0.000857869131014625
0.0007115880812749389
0.0005770884326024566
0.0004577657508487182
0.00035524834980329577
0.00026976768119511114
0.0002005048537098426
0.00014591573535393957
0.0001040292405414491
7.270556906431318e-05
4.983602993398314e-05
3.345621222805449e-05
2.1694353246845724e-05
1.2255521863441438e-05
5.245379787176113e-07
-1.4934638941628764e-08
-2.280743462572587e-06
-9.845052016828597e-06
-2.8774967093633635e-05
-6.891187276769067e-05
-0.00014472954890800956
-0.0002758734713904209
-0.0004872144873833072
-0.0008083214627658298
-0.0012723422573973134
-0.0019143702586561155
-0.002769447549542373
-0.003870403063713054
-0.0052457389729690185
-0.006917762140081993
-0.008901116304255816
-0.011201814478562456
-0.013816810288274962
-0.016734090828788316
-0.01993322864986237
-0.02338630018763957
-0.027059062995627162
-0.030912282854346176
-0.03490311123918862
-0.03898643008162805
-0.043116100740117944
-0.04724607461680864
-0.05133134170738384
-0.055328709176329406
-0.05919741417862747
-0.06289958356068955
-0.06640055813332803
-0.06966910151325169
-0.07267751375827566
-0.07540166883678556
-0.07782099294967139
-0.07991839832009592
-0.08168018461447583
-0.08309591787250559
-0.08415829482394141
-0.08486299880060175
-0.08520855210800882
-0.08519616866526271
-0.08482960990139962
-0.08411504625456548
-0.083060926102902
-0.08167785351623408
-0.07997847581710946
-0.0779773815477399
-0.07569100903076931
-0.07313756526371344
-0.07033695437555684
-0.06731071427147757
-0.06408195936430733
-0.060675326400245456
-0.05711691929175071
-0.05343424754089285
-0.04965615126344097
-0.04581270404313291
-0.04193508296093147
-0.03805539335298164
-0.0342064344624258
-0.030421391588379643
-0.02673344111866756
-0.023175257521805298
-0.01977841648462301
-0.016572696273475396
-0.013585290141932362
-0.010839955868737778
-0.008356143434889487
-0.006148156999420434
-0.004224420655787146
-0.002586926318237957
-0.0012309434804261105
-0.00014506150789553022
0.000688386668949159
0.0012925055446542562
0.0016946544259538803
0.0019249831571388455
0.0020148135691458856
0.001995023812973998
0.0018945975415242274
0.0017394755537712338
0.0015517974482142554
0.0013495561552163797
0.0011466247475727682
0.0009530680455518438
0.0007756308686691822
0.000618301084630446
0.00048287118419668477
0.00036945465897258767
0.00027694129507466745
0.00020339179224917713
0.00014637627092862712
0.00010325690043612047
7.140500235387978e-05
4.831984280642703e-05
3.153406629211895e-05
1.7869229881345433e-05
7.614540015802235e-07
-3.01221838256805e-08
-4.1382999987333756e-06
-1.7146515493258517e-05
-4.839215252893327e-05
-0.00011235807744913868
-0.00022946350741374967
-0.0004263170988623528
-0.0007352720583739394
-0.0011932451342704597
-0.001839876962428624
-0.0027152115732129154
-0.0038571395620664046
-0.005298873361518169
-0.007066704861073652
-0.00917824382035057
-0.011641263261295446
-0.014453199576650637
-0.017601282925666855
-0.021063216444448578
-0.0248082854247302
-0.02879876048054338
-0.03299145936117565
-0.03733934618262043
-0.04179306946722372
-0.04630236678022898
-0.050817290058221186
-0.055289229192352
-0.05967173046303624
-0.06392112042387561
-0.06799695495541058
-0.07186231809587847
-0.0754839967953295
-0.07883255687758904
-0.08188234310548857
-0.08461142305542585
-0.08700149106835546
-0.08903774523317647
-0.09070874740177971
-0.09200627374049308
-0.09292516131268203
-0.09346315462948666
-0.09362075493790073
-0.09340107416415885
-0.09280969482340112
-0.09185453677979065
-0.0905457314421294
-0.08889550376737632
-0.0869180622867657
-0.08462949724114856
-0.08204768679092983
-0.07919221112712135
-0.0760842741237278
-0.07274663189962956
-0.0692035272518717
-0.0654806283238526
-0.06160496901791214
-0.057604887491951876
-0.05350995755128438
-0.04935090585538162
-0.0451595056644739
-0.04096843550650786
-0.036811088924540665
-0.03272131977860777
-0.028733106966885323
-0.02488012353731168
-0.021195198642837133
-0.017709667217923962
-0.014452611948625033
-0.011450015005206116
-0.008723852497796732
-0.006291181455026383
-0.0041632853891225155
-0.0023449576450206414
-0.0008340087133748325
0.00037891865009914407
0.0013101570794295493
0.001982403672522786
0.002423690193558292
0.0026659844264140453
0.0027435250451702978
0.0026910367376272214
0.0025419979564461057
0.0023271321731027023
0.002073262070204886
0.0018026095622101933
0.0015325549518146163
0.0012758020297533948
0.0010408476373292297
0.0008326333072495383
0.0006532635277723038
0.0005027022836878496
0.00037939470796223546
0.00028079226078204676
0.00020378041181633324
0.0001450149442303869
0.00010116556575776538
6.903102555868091e-05
4.5365699437856466e-05
2.579877257734219e-05
1.0943267182377568e-06
-5.797124902842942e-08
-7.244826208478601e-06
-2.8884171383265103e-05
-7.885651719999201e-05
-0.00017775714384400944
-0.0003534163319099352
-0.0006406259809340828
-0.0010799583218900361
-0.0017157427468431157
-0.0025934032030649045
-0.003756453573252154
-0.0052434874669116255
-0.007085481147788465
-0.009303664618191284
-0.011908123769147804
-0.014897195429358428
-0.01825762417131304
-0.02196537688680904
-0.025986964469407153
-0.030281099970584476
-0.034800525724830035
-0.03949386214963042
-0.04430736142369276
-0.04918648372383166
-0.05407724712950805
-0.05892733126789503
-0.06368693744138565
-0.06830942385207442