# vtk DataFile Version 4.1 
COMMENT
ASCII
DATASET STRUCTURED_POINTS 
DIMENSIONS 100 100 1 
ORIGIN 0 0 0
SPACING 0.12693303650867893 0.12693303650867893 0 
POINT_DATA 10000
SCALARS U double 1
LOOKUP_TABLE default
0.0
0.0
0.0
0.0
0.0
0.0
0.0
0.0
0.0
0.0
0.0
0.0
0.0
0.0
0.0
0.0
0.0
0.0
0.0
0.0
0.0
0.0
0.0
0.0
0.0
0.0
0.0
0.0
0.0
0.0
0.0
0.0
0.0
0.0
0.0
0.0
0.0
0.0
0.0
0.0
0.0
0.0
0.0
0.0
0.0
0.0
0.0
0.0
0.0
0.0
0.0
0.0
0.0
0.0
0.0
0.0
0.0
0.0
0.0
0.0
0.0
0.0
0.0
0.0
0.0
0.0
0.0
0.0
0.0
0.0
0.0
0.0
0.0
0.0
0.0
0.0
0.0
0.0
0.0
0.0
0.0
0.0
0.0
0.0
0.0
0.0
0.0
0.0
0.0
0.0
0.0
0.0
0.0
0.0
0.0
0.0
0.0
0.0
0.0
0.0
-5.162308698077111e-13
2.5320368235810433e-10
2.860033803722346e-09
1.6485470397505593e-08
6.816181581268238e-08
2.2816532067381095e-07
6.564649177689842e-07
1.6812623646899456e-06
3.921040942091758e-06
8.460580955008691e-06
1.7088062175157217e-05
3.259450993057604e-05
5.9128791905728343e-05
0.00010259196679911752
0.0001710452392088048
0.0002750974927744707
0.0004282327078114842
0.0006470355814265712
0.000951275943318562
0.0013638191138582742
0.0019103396307450953
0.0026188287549590906
0.003518900528363791
0.004640915457037938
0.006014953782611485
0.007669680668668196
0.009631152712227314
0.011921618631914646
0.014558366814285566
0.01755266898067127
0.020908863178529257
0.024623611360079244
0.028685357791804603
0.033074005208809716
0.037760816653169126
0.04270854283578205
0.04787176799307846
0.05319746176480721
0.05862572063834375
0.06409067990331906
0.06952157565502422
0.07484393592522656
0.07998088021418466
0.0848545072424259
0.08938735133643458
0.09350388823473141
0.09713207101622422
0.10020487613200439
0.10266183805285749
0.10445054879281912
0.10552809558213463
0.10586240636851946
0.10543346881505078
0.10423438426078531
0.10227221393295158
0.09956857072093488
0.09615990617441814
0.09209743924368269
0.08744667105528198
0.08228642970103327
0.0767073925638404
0.0708100442831115
0.06470205030894098
0.05849506349987336
0.052301037125881314
0.04622819054571204
0.04037685580364417
0.03483550897027676
0.029677337986379476
0.02495769719821369
0.020712733036539466
0.016959335823389526
0.013696399318638846
0.010907189075731391
0.008562476575627977
0.0066240242641392565
0.005048021608199395
0.003788161593678222
0.0027981762008039987
0.0020337760472864765
0.0014540303768349168
0.0010222661559496523
0.0007065679117006288
0.0004799443225230113
0.00032021421304939977
0.00020966387303653091
0.00013453724655678302
8.44305988651952e-05
5.166412659636466e-05
3.069108371078675e-05
1.7583847351398057e-05
9.613282708795736e-06
4.9194877593788146e-06
2.2616484384412832e-06
8.316391835770572e-07
1.1739392176443727e-07
-1.947232364753804e-07
-2.852237253033604e-07
-2.341362206733338e-07
-1.021464546935117e-08
-1.0445730616534673e-12
8.697407155718262e-10
7.894349008896164e-09
4.003204260305948e-08
1.505626613745979e-07
4.664482323771041e-07
1.2552637892704412e-06
3.028540057949567e-06
6.6883428441174e-06
1.3719578099907509e-05
2.6424053281134086e-05
4.818447772113916e-05
8.373852381813788e-05
0.00013943620329395773
0.0002234494932266884
0.0003459023970335266
0.0005188929224596028
0.0007563856332398609
0.0010739637000130768
0.0014884414861775369
0.002017351154411886
0.002678328068074179
0.0034884286126377656
0.004463419591034192
0.005617080145438579
0.006960555298572513
0.008501795174391449
0.010245106532768894
0.012190834377392526
0.01433518203774672
0.01667016916330344
0.01918371920919426
0.02185986173074573
0.024679030406446437
0.02761843523364085
0.030652486674850057
0.0337532504360399
0.036890913715714735
0.04003424682772728
0.04315104772772783
0.046208560849954526
0.049173865519722575
0.05201423283071762
0.05469745309744528
0.05719213868656369
0.05946800910414843
0.061496166602036745
0.06324937121905158
0.06470232406956039
0.0658319668450456
0.06661780397148748
0.0670422518116921
0.06709101695611566
0.06675350332937112
0.06602324589206927
0.06489836735647746
0.06338205343138935
0.06148304092284301
0.05921610997397105
0.05660256446974067
0.05367067051494636
0.050456000125209385
0.047001596629943715
0.0433578449563876
0.039581904568792056
0.03573656050732767
0.03188838453812728
0.028105183866353935
0.02445284576560147
0.020991840871749903
0.017773786295383034
0.014838544654214645
0.012212307820682508
0.009906972556383821
0.007920884918415793
0.006240771437986742
0.004844462975821108
0.00370391419694005
0.002788051913900162
0.0020651254753925137
0.001504421901398887
0.001077378297175497
0.0007582249670685375
0.0005243125170014083
0.0003562379232409117
0.00023782779009533453
0.00015599614729119827
0.00010048355539338408
6.349752815097795e-05
3.9293889527803844e-05
2.3748927198891128e-05
1.3967026737996196e-05
7.951787303512717e-06
4.349162643614148e-06
2.256471456792435e-06
1.0842166367034917e-06
4.5735705366393996e-07
1.4587823353970285e-07
1.7700343690940392e-08
5.320914526983054e-10
-1.0860334590067453e-12
2.7880842620084935e-09
2.2247977515115478e-08
1.042633579215047e-07
3.703330674950364e-07
1.0968849435474951e-06
2.8449536320669455e-06
6.653941871969284e-06
1.4309031511852884e-05
2.868428390920135e-05
5.4153159279289825e-05
9.704637151334485e-05
0.00016612543456699997
0.00027303084333702706
0.00043265822860154583
0.0006634151453749299
0.0009873157652704125
0.0014298802281536742
0.002019818668617694
0.0027884954076701617
0.0037691847375222257
0.004996144454296667
0.00650354543599901
0.008324304189095806
0.010488869961106073
0.013024018775777465
0.01595170401751584
0.019288007669351164
0.023042228833394136
0.02721613759940509
0.0318034134721177
0.03678927908504023
0.04215033231485626
0.047854573489513184
0.05386161931620966
0.06012309146771893
0.066583165376227
0.07317926353877038
0.07984287733797066
0.08650050180482134
0.09307466867078476
0.09948506425448908
0.10564971999547987
0.1114862645878385
0.11691322749440232
0.12185138395866028
0.1262251312995353
0.129963885098755
0.13300348170124407
0.135287570096171
0.1367689716324829
0.1374109801585841
0.13718856826434042
0.13608945784914966
0.1341150061611484
0.1312808531542254
0.12761727433496753
0.12316918724533653
0.11799577100697668
0.11216967740591573
0.1057758371668398
0.09890989193966429
0.09167630414880405
0.08418620537874526
0.07655503377869122
0.0688999827133784
0.061337246654618545
0.05397902565832195
0.04693026072033323
0.04028513724563306
0.03412351342268494
0.02850757884246245
0.02347917585213508
0.019058261392383227
0.015242904542378118
0.01201099826582777
0.009323558043947707
0.007129171972215477
0.005368953907120423
0.003981301846806624
0.0029058880692005083
0.00208655348774491
0.0014730557463254134
0.0010218398003926414
0.0006961092050044056
0.0004654755915949034
0.00030539282568452377
0.0001964944698554964
0.0001238885398492962
7.643574073701769e-05
4.60368754618853e-05
2.696284513883933e-05
1.526161240819435e-05
8.266283867619237e-06
4.211679312706927e-06
1.951069337830596e-06
7.556588587125434e-07
1.7818863686198682e-07
-3.4207422784755054e-08
-1.4716671452626532e-09
3.337845150759647e-12
8.060180370040756e-09
5.762761364367212e-08
2.5057302504510367e-07
8.394682247082579e-07
2.3678303457388803e-06
5.885456948067219e-06
1.3250688369420485e-05
2.752139982113507e-05
5.3422669498293214e-05
9.786329041389383e-05
0.00017045821386399643
0.00028400243927796084
0.00045483620109627615
0.000703043041770648
0.0010524317862379976
0.0015302695834409864
0.0021667540475620918
0.0029942354514612443
0.004046222046145218
0.0053562203185212745
0.006956475394413867
0.008876683719232793
0.011142750368015555
0.013775657416147927
0.016790498925025297
0.020195723824190655
0.023992611996065498
0.02817499280048448
0.032729200476891804
0.037634248350118006
0.042862194176511215
0.048378662568234546
0.054143487176036884
0.06011143490357542
0.0662329764171064
0.07245507106722411
0.0787219395012099
0.08497580319569588
0.09115757642709889
0.0972075024538737
0.10306573163133805
0.10867284462035982
0.11397032865748277
0.11890101894694538
0.12340952056208805
0.12744262875552584
0.13094976720393295
0.13388346433943865
0.1361998873643199
0.1378594515452099
0.13882751858754674
0.13907519188587966
0.1385802078159572
0.1373279106930527
0.13531228461302022
0.13253699876512273
0.12901640548073
0.12477641480596767
0.1198551591697935
0.11430336037894635
0.10818432131180986
0.10157348632707022
0.09455754368067977
0.08723307227326219
0.07970475390005195
0.07208317315754414
0.06448221035029085
0.05701601014336786
0.04979550371044359
0.04292450190501779
0.036495478646756216
0.030585319395774035
0.02525147869772517
0.02052910697864162
0.01642970123863964
0.012941667912182205
0.01003287559064971
0.007654897602802329
0.005748313442743378
0.004248260105029951
0.0030894537477829252
0.00221011786280501
0.0015545711199057952
0.0010745358313554525
0.000729437738457958
0.0004860439197877411
0.00031774862500801493
0.0002037211987580797
0.00012803235217678994
7.88091846917271e-05
4.744133453824211e-05
2.785671347991268e-05
1.5887243455186883e-05
8.741446929867897e-06
4.590126665639697e-06
2.258477145080414e-06
1.0076655000246015e-06
3.776714468412766e-07
1.6300758537202328e-08
2.594917932248913e-11
2.145932539869569e-08
1.4007201243211968e-07
5.706956720202204e-07
1.8156708441504199e-06
4.903920356957579e-06
1.173859057298233e-05
2.5560032671921825e-05
5.151403449163831e-05
9.729532693446572e-05
0.0001738168670783586
0.0002958399242522509
0.00048249173393173964
0.0007575984029534887
0.0011497712143542138
0.0016922032275444164
0.0024221575154836977
0.003380155164624539
0.00460889678433374
0.006151972673692847
0.00805243179222369
0.01035128718568767
0.013086035532085859
0.01628926192376513
0.019987389458736664
0.024199618566627345
0.028937085146222827
0.034202251220624924
0.03998852821827518
0.04628012200672283
0.05305208083748937
0.06027052241521588
0.06789301410016203
0.07586908031915382
0.08414081303525654
0.09264356404150155
0.10130670138093463
0.11005441592377194
0.1188065677257133
0.1274795650253631
0.1359872714798618
0.1442419394248548
0.15215516856716785
0.15963889059549508
0.16660638075721762
0.17297329752687146
0.17865875109929574
0.18358640057455725
0.18768557833641858
0.19089243821255777
0.1931511214708202
0.1944149314545485
0.19464750356658642
0.1938239522213518
0.19193197012400354
0.1889728476565644
0.18496237123440723
0.17993154954673532
0.17392710651267443
0.1670116713547069
0.15926359221317643
0.15077630374284534
0.1416571945179212
0.13202594842717025
0.12201237348541034
0.11175377454938965
0.10139196178903599
0.09107000186815817
0.08092880609244674
0.07110361343760488
0.061720385704662505
0.052892117916931485
0.04471510953413432
0.037265352643904674
0.030595350074668237
0.02473182191007697
0.01967481705313548
0.015398654972704389
0.011854867542910378
0.008976944277499642
0.006686313410412077
0.004898738244038896
0.0035302588322291112
0.002501975749039692
0.00174329000838952
0.0011935687195095421
0.000802489717361051
0.000529465243585806
0.00034255155305979416
0.00021716334761142964
0.00013479187881074753
8.182336814331579e-05
4.8491999593414925e-05
2.797544952613198e-05
1.5634456628939497e-05
8.395939498445442e-06
4.274089758395624e-06
2.0142209773459934e-06
8.20778421749096e-07
3.576554225117215e-08
1.0611014002866222e-10
5.316155805559916e-08
3.2077247120257597e-07
1.2325031001714035e-06
3.7383290856988227e-06
9.692819676517024e-06
2.2382002694632742e-05
4.718427760017389e-05
9.233103400478684e-05
0.00016970664604985485
0.00029560638702801653
0.000491359041917056
0.0007837214827022623
0.0012049658952759622
0.0017926050972567663
0.002588733973988713
0.0036390008756024364
0.004991257026946094
0.0066939603726797105
0.008794429788225753
0.011337054723655525
0.014361564120188656
0.017901448135305097
0.021982609008244006
0.026622295911369814
0.031828355509746595
0.037598807534493094
0.04392173479314214
0.05077546090960535
0.058128977319067264
0.06594257372315908
0.0741686230149167
0.08275247201634281
0.09163339249592063
0.10074555207645429
0.11001897107858928
0.1193804384443476
0.12875436714536873
0.138063576531145
0.14722999566489076
0.15617528768464603
0.1648214005517235
0.17309105420055362
0.18090817810770085
0.18819831668579431
0.1948890227000513
0.20091026108858007
0.20619484708191765
0.2106789432389892
0.21430263975105254
0.2170106408424263
0.2187530769777708
0.21948645747816692
0.21917477063612104
0.21779072810702738
0.21531713692917023
0.2117483658489686
0.2070918528785386
0.20136957888075768
0.19461940894719265
0.18689618199003522
0.17827241319710208
0.16883846884581466
0.15870208385056797
0.14798712346221393
0.13683154227632344
0.12538456081966198
0.11380315051350683
0.10224797528268245
0.09087896715275616
0.07985070756185175
0.06930775518013096
0.05938003041506628
0.05017836962171087
0.0417904219275478
0.03427717415491603
0.027670513179604762
0.021972300975410593
0.01715537668547382
0.013166680250399201
0.009932344289190174
0.007364218056788406
0.005366992305083302
0.003844988887940719
0.002707800566742866
0.0018742698157588823
0.001274675176792844
0.0008513306236419679
0.0005580121797064062
0.00035868186570677386
0.0002259136179422412
0.00013930047660295217
8.399601075164382e-05
4.945074802075788e-05
2.8353666872892368e-05
1.5768498464531765e-05
8.448072259588246e-06
4.301261427843132e-06
1.9445169373543203e-06
8.438020630747627e-08
3.427072152179669e-10
1.2351991398778434e-07
6.955350149873942e-07
2.5339515230331624e-06
7.354051638881748e-06
1.835452591852312e-05
4.097418845159863e-05
8.378374429104955e-05
0.00015944325749034567
0.0002856279216416181
0.00048580838150910497
0.0007897712540955146
0.0012337816861211427
0.001860320637421512
0.0027173703939859873
0.0038572663935932234
0.005335175371220425
0.007207293613440404
0.009528881015152287
0.01235225504887192
0.015724864143962892
0.019687544457027327
0.024273040795357647
0.029504845160666957
0.035396378489006
0.04195051557527135
0.049159431959745814
0.057004735888734
0.06545783867126512
0.07448051248786826
0.0840255851384519
0.09403772525168938
0.10445427794615801
0.11520611872755962
0.1262185015830899
0.1374118850638713
0.14870272712710172
0.16000424535131189
0.1712271437309122
0.18228031062867509
0.19307149474190635
0.20350796730207293
0.21349717938557203
0.2229474233717121
0.23176850743040986
0.23987245161257617
0.2471742137658141
0.2535924531740266
0.25905033953349127
0.2634764145774291
0.26680551321907886
0.2689797502869715
0.2699495774674906
0.26967491254136855
0.2681263389025131
0.26528636711120207
0.2611507412733617
0.25572976083984816
0.24904957269108974
0.2411533692682556
0.23210240695900966
0.22197673703292328
0.21087552274848106
0.1989168060016725
0.18623659127623562
0.17298713948806274
0.1593344125819778
0.14545467888218602
0.13153036932227286
0.1177453493716045
0.10427982238796177
0.09130509480223256
0.07897841347022215
0.06743804966001535
0.056798783536446726
0.047147966004241516
0.03854240806413544
0.031006443556140094
0.024531570247479886
0.01907802940535479
0.014578494664299965
0.010943722757547805
0.0080696496646818
0.005845111864860715
0.004159240434698743
0.002907666358804463
0.0019969602313010945
0.00134711385923488
0.000892235679420626
0.0005798806071618824
0.00036952795376278113
0.00023067743037343436
0.00014090939886830388
8.411383738360054e-05
4.8976850336640856e-05
2.77404024519651e-05
1.5213743948431982e-05
7.98993001697408e-06
3.743394878979956e-06
1.6222443684279924e-07
9.59917116138765e-10
2.7079286826916995e-07
1.4334550970387585e-06
4.973466660909731e-06
1.3852711267437975e-05
3.335539227309972e-05
7.211228974622161e-05
0.0001432257218895308
0.0002653794596976303
0.0004637944017556461
0.0007708874375855441
0.0012265094221533756
0.0018776760363200798
0.002777756441941179
0.0039851409039517
0.00556146147547862
0.0075694822299920955
0.010070802561484701
0.013123526803064629
0.016780046612423282
0.021085062166400083
0.026073938442929826
0.03177145843994377
0.03819100047441575
0.045334135269593415
0.05319061280494942
0.061738690134554124
0.07094573979887107
0.08076907348260674
0.09115691610321697
0.10204947019191857
0.11338001786170021
0.12507601658629494
0.13706015441060748
0.1492513393159191
0.16156560577696544
0.17391692880975998
0.18621794193992167
0.19838056057358572
0.21031651636068324
0.22193781147727432
0.23315710450116736
0.24388804187953095
0.25404555102493226
0.26354611292454755
0.2723080338594177
0.2802517374119116
0.2873000993441669
0.2933788490566797
0.2984170620217252
0.30234776760092835
0.3051086956973253
0.3066431833821874
0.30690125852781297
0.30584091106667677
0.30342955325808646
0.2996456577764827
0.29448054614574304
0.2879402798496001
0.2800475825332548
0.2708436948343365
0.26039003515389936
0.2487695128906749
0.23608731956924037
0.22247101365627148
0.20806972342867286
0.1930523253766933
0.17760451686940013
0.16192478911617406
0.14621940993025567
0.13069662787713848
0.11556038876263473
0.1010038945950373
0.08720332920250339
0.07431203649187217
0.06245539478115682
0.05172661404308096
0.04218370677658203
0.033847931678940145
0.026704035392224604
0.02070256163049147
0.015764318034093665
0.011786796621648287
0.008651999621877573
0.006234834106397767
0.004411108913516198
0.0030642504675786513
0.002090131084302429
0.001399788665947002
0.0009201948478254989
0.0005935007388956811
0.0003753070488659297
0.0002324785786715042
0.00014090275425006254
8.344074463354817e-05
4.8186140972516113e-05
2.7050352690957186e-05
1.461830235086492e-05
7.058147511070752e-06
3.048042863059593e-07
2.4241828399371786e-09
5.62842967598527e-07
2.81735059420689e-06
9.343575922227158e-06
2.5042295107302e-05
5.8289741767819115e-05
0.00012224054177486664
0.00023614602528633494
0.0004265206466166781
0.0007279811817189468
0.0011836036029625819
0.0018446882230033523
0.0027698870666669484
0.004023717749351588
0.005674554194694764
0.007792236816393558
0.010445477073215904
0.013699241224895985
0.01761228698812513
0.02223499876741918
0.027607628027552983
0.0337590014505092
0.040705716491857745
0.04845180628437898
0.05698882641754131
0.06629629624439462
0.07634241695324255
0.08708498659079487
0.09847243681318682
0.11044492539255803
0.12293543048165034
0.13587080564453274
0.14917276736531385
0.16275879821282582
0.1765429585090401
0.19043660698471956
0.20434903651758662
0.21818803481793478
0.23186038213900212
0.2452722990762741
0.2583298576182481
0.27093936813600916
0.2830077542273873
0.29444292649649273
0.30515416563897724
0.3150525247625602
0.32405126080523006
0.33206630528288206
0.339016785420277
0.34482560795363276
0.3494201194254791
0.3527328584120438
0.3547024164984444
0.35527442547006544
0.3544026874822178
0.3520504621098969
0.3481919182455193
0.3428137488331449
0.335916931502148
0.3275185976436022
0.31765394620866416
0.30637810715681324
0.29376782486998976
0.2799227973486535
0.26496647781624133
0.24904612848386568
0.23233191985185872
0.21501490087496405
0.19730373052474823
0.17942015868067923
0.16159336428815024
0.14405338298166412
0.12702396123954676
0.11071523802970559
0.0953166673383666
0.08099056292672809
0.06786659355874675
0.05603751215433101
0.04555638432377542
0.036435583333612645
0.028647804056202836
0.02212926823043857
0.016785111600670578
0.01249666575727558
0.009130031557232661
0.006545081469960098
0.00460391912325583
0.003177917185941779
0.002152733170833395
0.0014310874468861773
0.0009334688093226465
0.0005972132487472267
0.0003745301285981553
0.00023003173287053887
0.00013820353148634389
8.10937915707919e-05
4.6347197065096285e-05
2.555330684297422e-05
1.2572483891988786e-05
5.411823610037115e-07
5.635792153895752e-09
1.1135439408174022e-06
5.295933839251266e-06
1.6841136601319147e-05
4.353206495170276e-05
9.812665755441245e-05
0.00019990395852437286
0.0003760746934111906
0.0006628418915986832
0.0011059171580401642
0.0017603517174092876
0.002689618661901345
0.003963970052009872
0.005658174924063362
0.007848809354259505
0.010611309368517017
0.014017008732952209
0.01813036845634503
0.023006568816545492
0.02868958558171316
0.03521081795182257
0.042588283798592655
0.05082635345307434
0.059915959850568426
0.06983520147671271
0.08055024472665487
0.09201643224562127
0.104179511159602
0.1169769072495017
0.1303389856818661
0.14419025391768453
0.15845047644046606
0.1730356830741084
0.187859062471668
0.20283173979289798
0.2178634428568774
0.23286306451628316
0.24773913107725268
0.26240018770771134
0.27675511231667654
0.2907133696575069
0.3041852176422132
0.3170818782101961
0.3293156856668591
0.3408002262369731
0.3514504836666756
0.36118300702985406
0.3699161184010923
0.3775701796801453
0.3840679395008359
0.389334982705798
0.3933003061437137
0.3958970453020262
0.39706337618215454
0.396743615388824
0.39488953803042326
0.391461926958011
0.386432357233776
0.3797852055953076
0.3715198552326877
0.36165304086600036
0.35022124790461223
0.33728304329857745
0.3229211767803452
0.30724425347412115
0.2903877482274376
0.2725141162900847
0.2538117630737292
0.2344926760838878
0.21478859992674745
0.19494574932644707
0.17521819505951186
0.1558602039179045
0.13711794047979242
0.11922102100542557
0.1023744338785106
0.0867513095029825
0.07248695539937168
0.05967449751379263
0.04836240731665604
0.03855414562683659
0.030210092667493686
0.023251820862627687
0.01756857445628627
0.013025555610482964
0.009473332774131848
0.006757467971461443
0.004727387700169952
0.0032436405500247414
0.0021829747595546074
0.0014410546210653298
0.0009330119584029898
0.0005923058000200895
0.00036849078758908625
0.00022447610770654806
0.0001337335974376453
7.773424095614592e-05
4.3651479965182716e-05
2.1830676821081303e-05
9.361264569862195e-07
1.2218458916108406e-08
2.104028977601735e-06
9.545423052287027e-06
2.9184507833176363e-05
7.290264032281777e-05
0.0001593961944223948
0.0003158665383398693
0.0005793525386550177
0.000997463002243008
0.0016283272499243442
0.0025396750670111396
0.0038070648394006325
0.005511381474556934
0.007735807182424067
0.010562517526115344
0.014069368461936986
0.018326819991225818
0.023395296019308252
0.02932311816861873
0.03614508414888388
0.043881698015432194
0.05253900694985381
0.06210896089546769
0.0725701885684135
0.08388907495628785
0.09602102886454711
0.10891184110659927
0.12249905118642897
0.1367132597739513
0.15147934352171027
0.16671754613415407
0.18234443408895032
0.19827371662479165
0.21441693759949837
0.23068405193037184
0.24698390206271303
0.26322461083519644
0.27931390676549106
0.29515939664334223
0.31066879878068626
0.32575014862739476
0.34031198693243236
0.3542635393614376
0.3675148955709518
0.37997719525134893
0.39156282863028097
0.4021856594111694
0.4117612791360534
0.42020730352901314
0.42744372349736337
0.43339332610892417
0.4379822039297425
0.44114037440862447
0.4428025342107976
0.44290897603840484
0.44140669682790273
0.438250725354289
0.4334056930527954
0.4268476629828244
0.41856621695724255
0.4085667787497428
0.39687312122132884
0.38352996723239746
0.36860554963500136
0.3521939474839882
0.33441696898193846
0.31542531397869716
0.2953987294870356
0.2745448810491152
0.2530967102877303
0.23130814003678
0.2094481211691398
0.1877931777920424
0.1666187778856076
0.1461900061730092
0.12675211732454755
0.10852158286307305
0.091678213802246
0.07635886020346908
0.06265308524858744
0.050601107527096414
0.040194206035274446
0.03137767159633884
0.024056238430400896
0.018101722173825677
0.013362337517445127
0.009672919186108188
0.006865098378613849
0.004776462241657635
0.0032578780879403435
0.002178472286258863
0.0014281408921743481
0.0009178370772573803
0.0005781443177183784
0.0003567595621825835
0.00021547860522854703
0.00012711951847346384
7.250186624791081e-05
3.673679899069359e-05
1.5691584486937107e-06
2.4922558661328374e-08
3.8077685516452385e-06
1.6534173500685577e-05
4.8718028112997685e-05
0.00011781886802262013
0.0002502300540628048
0.0004829377048744388
0.0008645364607522515
0.0014553667429906818
0.0023266479884445266
0.0035586137467642828
0.0052377824276846245
0.007453599949662493
0.010294753025879457
0.013845468969272526
0.018182092997536932
0.023370176798596147
0.029462235713070977
0.036496249855228306
0.04449490843740034
0.05346553472578853
0.06340058583554097
0.0742785978230102
0.08606544035709433
0.09871575301209218
0.11217445252810965
0.12637822289024186
0.14125692405215526
0.15673487774953435
0.1727320082793668
0.18916483143756527
0.20594729582224047
0.2229914877605589
0.2402082148585929
0.257507484400932
0.27479889234048865
0.29199193713535354
0.3089962707917504
0.3257218975927733
0.34207932941931785
0.3579797054646965
0.37333488357134614
0.3880575103695513
0.4020610778231061
0.41525997461291236
0.4275695419415874
0.43890614475558215
0.44918727101053696
0.4583316734268028
0.46625957019054176
0.47289292325546733
0.4781558152850594
0.48197494879994274
0.48428029363624225
0.4850059111254713
0.48409098503733927
0.48148108960663305
0.4771297229382113
0.4710001285105643
0.4630674169074024
0.45332098273228466
0.44176718648141916
0.4284322370438216
0.41336516751209745
0.39664074667768573
0.378362114565552
0.3586628787344847
0.3377083675272082
0.3156957178308568
0.29285248984617285
0.26943355995554774
0.24571615029478344
0.22199300699559713
0.19856392435761655
0.17572600480220688
0.15376321300807919
0.13293589678475798
0.113470986966774
0.09555355118205151
0.07932027704189183
0.06485532509302912
0.052188844617846765
0.041298295915064204
0.032112563324062954
0.02451865723535307
0.018370582359237397
0.013499710476708782
0.009725785667279972
0.0068675726931705094
0.004752189644610977
0.003222362215353985
0.0021411665384186754
0.0013942149071346137
0.0008895917133337652
0.0005560880901094198
0.00034036955356071466
0.00020361652665250863
0.0001177905294576494
6.0370196255210955e-05
2.567800066169622e-06
4.813908740172153e-08
6.616870003348735e-06
2.7579427175170635e-05
7.847716008104792e-05
0.0001840375033686797
0.0003801905658948821
0.0007154466110137267
0.0012513058980590838
0.0020615233697626606
0.0032302095191688095
0.004848907539672138
0.007012916442545044
0.00981721042719659
0.013352328658479172
0.017700580495261447
0.022932841466098086
0.02910612176859573
0.03626198914624567
0.04442583639157436
0.053606910657683284
0.06379897239556781
0.07498142666065519
0.08712076588569666
0.10017217605372856
0.114081181798188
0.1287852348305362
0.1442151796971674
0.16029655789787944
0.17695073385398224
0.1940958432337225
0.2116475757476298
0.22951981133022123
0.24762513156303834
0.2658752283065819
0.28418122978262156
0.30245396162432153
0.3206041573409593
0.3385426296837765
0.3561804118330121
0.37342887529623825
0.39019982995547126
0.4064056107999732
0.4219591554736456
0.43677407678143226
0.4507647346773916
0.46384631295771017
0.4759349068907166
0.486947629347012
0.4968027446853966
0.5054198417617239
0.5127200600208881
0.5186263857557241
0.5230640392779999
0.5259609778740797
0.5272485438119804
0.5268622909437404
0.5247430269774558
0.5208381103458363
0.5151030395066861
0.507503366885752
0.4980169576850545
0.48663659354684785
0.47337289095805074
0.4582574633761699
0.4413462046943025
0.4227225120728717
0.4025002030718865
0.3808258230248601
0.3578799941543268
0.3338774405839622
0.30906534607019
0.28371977445249974
0.25814001098410905
0.23264086072394213
0.2075431510892094
0.18316290140134425
0.15979980824554554
0.13772581885678786
0.11717460379958235
0.09833269107768527
0.08133290108469397
0.06625055155376201
0.053102709599698546
0.04185056874927372
0.032404823070889995
0.024633691888029132
0.018373018432274412
0.013437645904057702
0.009633108849675439
0.006766620013449789
0.004656422497295838
0.0031388177646009346
0.0020725304348586655
0.001340454512385435
0.0008491547315071689
0.0005266926046680058
0.00031932571596607806
0.00018715724080364013
9.688029481674435e-05
4.102651117967139e-06
8.848997324301946e-08
1.1065048056719711e-05
4.438065282633013e-05
0.00012218132015666752
0.00027825649315052226
0.0005598188591475602
0.0010282903845080982
0.0017588001059989046
0.0028383333966324436
0.004362668488520114
0.006432400378754027
0.009148457697124787
0.012607553124564424
0.016897976246211113
0.022096054584857104
0.028263495427513788
0.035445700116994105
0.04367103244774609
0.0529509364680447
0.0632807425217251
0.07464097402745491
0.08699896719953716
0.10031063505418247
0.11452223820795558
0.12957206126408177
0.1453919294424833
0.16190853168731756
0.17904454162042613
0.19671954568084457
0.21485079895021553
0.23335383453949113
0.25214295335851394
0.2711316190161923
0.2902327787839973
0.3093591270443993
0.3284233232109055
0.34733817225486735
0.3660167729838603
0.38437263718455816
0.4023197816376472
0.4197727947196436
0.43664687966992477
0.452857877451741
0.4683222733139569
0.48295719253037034
0.4966803922543489
0.5094102579161034
0.5210658140888986
0.5315667612827291
0.5408335517548544
0.5487875192571624
0.5553510797951744
0.5604480230801394
0.5640039175107582
0.5659466552422333
0.5662071680617315
0.5647203490421805
0.5614262186343003
0.5562713759369149
0.5492107748810959
0.5402098590765034
0.5292470758889656
0.5163167676690955
0.5014324039874793
0.48463007220567844
0.4659720852709052
0.44555049815359843
0.42349025373161187
0.39995161437955123
0.3751314893640683
0.34926325468112596
0.3226146952908386
0.2954837904064374
0.26819221375739094
0.24107662475717898
0.21447806265504346
0.18872999209705313
0.1641457472637709
0.14100624796414624
0.11954889213710865
0.09995846126757889
0.08236072328943336
0.06681920871983307
0.053335398212689206
0.04185231309716765
0.03226125328521231
0.02441118270499205
0.018120031102414474
0.013186988090404746
0.009404750866162406
0.006570693041713271
0.00449607241935653
0.0030126791993885524
0.001976692502195282
0.0012698819334472009
0.0007985635646704234
0.0004907498902111463
0.00029131775436560647
0.00015219251859897173
6.415259114320653e-06
1.5541720573675444e-07
1.7840774709714123e-05
6.901062868177166e-05
0.0001841202762917703
0.0004077614725823453
0.0007998651078604974
0.0014355599544436917
0.002403483151821246
0.003802657183546821
0.0057382566497448835
0.008316727600511492
0.011640775054391567
0.015804703291990158
0.020890496932723907
0.026964895572640143
0.03407756910069935
0.04226036856720765
0.05152752481863994
0.06187660161977606
0.07328998162842999
0.08573666682181032
0.09917420118182374
0.11355056318643664