# vtk DataFile Version 4.1 
COMMENT
ASCII
DATASET STRUCTURED_POINTS 
DIMENSIONS 100 100 1 
ORIGIN 0 0 0
SPACING 0.12693303650867893 0.12693303650867893 0 
POINT_DATA 10000
SCALARS U double 1
LOOKUP_TABLE default
0.0
0.0
0.0
0.0
0.0
0.0
0.0
0.0
0.0
0.0
0.0
0.0
0.0
0.0
0.0
0.0
0.0
0.0
0.0
0.0
0.0
0.0
0.0
0.0
0.0
0.0
0.0
0.0
0.0
0.0
0.0
0.0
0.0
0.0
0.0
0.0
0.0
0.0
0.0
0.0
0.0
0.0
0.0
0.0
0.0
0.0
0.0
0.0
0.0
0.0
0.0
0.0
0.0
0.0
0.0
0.0
0.0
0.0
0.0
0.0
0.0
0.0
0.0
0.0
0.0
0.0
0.0
0.0
0.0
0.0
0.0
0.0
0.0
0.0
0.0
0.0
0.0
0.0
0.0
0.0
0.0
0.0
0.0
0.0
0.0
0.0
0.0
0.0
0.0
0.0
0.0
0.0
0.0
0.0
0.0
0.0
0.0
0.0
0.0
0.0
1.1510285937545505e-09
-5.645626704708338e-07
-7.567875426852158e-06
-4.933860418419613e-05
-0.00022649395310051667
-0.0008308139157694492
-0.002587740819918802
-0.007085439718347205
-0.01743444804764817
-0.03913851371002218
-0.08104531872726949
-0.15610812942453262
-0.28157906913660985
-0.47824074288446455
-0.7684192702315737
-1.1728126042442144
-1.7065493319274292
-2.3752443017777662
-3.1720020084799296
-4.076239152556572
-5.054840576216537
-6.065613419469495
-7.062424189375075
-8.000974250732874
-8.844026596860344
-9.565079511027223
-10.149920533182602
-10.59603819583561
-10.910351327172732
-11.106009858627399
-11.199078613609194
-11.205767572639695
-11.140601738994166
-11.015627317163892
-10.840505601472016
-10.623193646137807
-10.370858607847937
-10.09070370467368
-9.790470103803298
-9.478491953545639
-9.163297026228383
-8.852845098997529
-8.553568262333394
-8.269414981653874
-8.001100805842514
-7.745735450580915
-7.496935108572321
-7.245450296176813
-6.980255689010747
-6.689972222979965
-6.364435000756853
-5.996191998633812
-5.581722613564739
-5.122201090114102
-4.623692263981555
-4.096746261621873
-3.555442706410156
-3.01601091065296
-2.4952091876489813
-2.008675650324447
-1.5694608878380751
-1.1869208142654128
-0.8660914413857842
-0.6075956064813227
-0.4080560876105323
-0.26092156250273196
-0.15756139116234305
-0.0884589781390654
-0.044334168781669
-0.01705108005084033
-0.0002133898600229443
0.01059399141722769
0.017899511174175497
0.022707942424195944
0.02502882147747978
0.024452528127648025
0.02066235251227285
0.013795548060635928
0.004603931904085771
-0.0055923835959249355
-0.015124006490503779
-0.0222988983704673
-0.025754983337087416
-0.024757191615947808
-0.019373136511364547
-0.010489253057959922
0.0003369899579945012
0.011159865830295622
0.020007599359334886
0.025253328684363502
0.025922972293037035
0.021880726621343896
0.013856443749638134
0.0033090273302710674
-0.007848251649671503
-0.017600398089996073
-0.0241446920972657
-0.025893649748602404
-0.020424969498089078
-0.0008910787982538454
2.005622881956949e-09
-1.673003835392242e-06
-1.6439260520164774e-05
-8.892271643500236e-05
-0.00035285375170400517
-0.0011403599197527489
-0.003161436570558538
-0.007748455434358961
-0.017117238607678976
-0.03453962162700419
-0.06427748495793834
-0.11113146858415651
-0.179539104154825
-0.2723157926317936
-0.3893195457958699
-0.5264506687832962
-0.6753865580736593
-0.8242696149658941
-0.9592683595476172
-1.0666421815146887
-1.1347889591309426
-1.155805991018507
-1.1263102655182848
-1.0475285601806523
-0.9248566940661214
-0.7671342727771552
-0.585804579911777
-0.39400617882419275
-0.2055569176911455
-0.03378719373482927
0.10975069436261915
0.21657132639928206
0.2823408880899257
0.3075357373741653
0.297496706251759
0.2617947597152603
0.2129420777090137
0.164599737496252
0.1295273399936955
0.11757581588077214
0.13403346707416147
0.17859492934569257
0.24513805993419355
0.3223765252405998
0.39532355860578383
0.4473756920822753
0.4627248155670414
0.4287495246909563
0.3380324690550307
0.1897007890610179
-0.010115702271102804
-0.24878430627828413
-0.5085615225288619
-0.7686807415997543
-1.0078385402630385
-1.206728207348749
-1.350268499447373
-1.4292278967165388
-1.4410406217824523
-1.38973450760014
-1.2850225413176555
-1.1407289319515288
-0.9728088251941566
-0.7972657444823353
-0.6282672242821398
-0.47670962034611725
-0.34939768544377653
-0.2488985205244126
-0.17402095931101016
-0.12077794264541808
-0.0836253296075112
-0.056744685762714624
-0.03515191872979783
-0.015463395786223785
0.0037741610898966984
0.022198392083166693
0.038118401276492186
0.04923987755923471
0.05346009578554085
0.04956369004095749
0.03768036128360604
0.019420139508506302
-0.0023306133361143157
-0.023901584582344843
-0.04151309270398711
-0.05199355306379221
-0.05339496402751793
-0.04538377492655809
-0.029329569614413763
-0.008072908648226535
0.014584963925371043
0.03457574686711588
0.04831360290873362
0.053367603183196166
0.04895148562139524
0.03619231949045646
0.018255793774419743
0.0005496496191116949
-0.008862037872594765
-0.00040634663625341126
1.73179232262686e-09
-4.465779262729805e-06
-3.802899599530916e-05
-0.00018949944827359192
-0.0007126798126670247
-0.0022231523223372545
-0.00603334282684621
-0.014653045123366794
-0.032440678948501944
-0.06632027291676398
-0.1263922466116795
-0.22619032071024886
-0.38231217417223673
-0.6132165222405938
-0.9371506207102114
-1.3694231193571351
-1.9194913705023384
-2.588485164624146
-3.367755590489014
-4.238805054426878
-5.174601702600174
-6.14194883706556
-7.104397141886237
-8.025205037789888
-8.870019230392446
-9.609148743146134
-10.21943345658059
-10.685718528601456
-11.001871189714151
-11.171191909736136
-11.206047403948295
-11.12661685004735
-10.958776903578025
-10.731309518565102
-10.472750871259992
-10.208277354236449
-9.957033993695976
-9.730256308620318
-9.530431927941565
-9.351610024541205
-9.180813057808301
-9.000355851424908
-8.790751649585225
-8.533802011083724
-8.21544108881947
-7.8279410232419835
-7.371180020465142
-6.852814469250751
-6.287359605216272
-5.694343990568276
-5.0958359649130704
-4.513724450808004
-3.9671594878771703
-3.4705172759304355
-3.0321584458435873
-2.654113764271009
-2.3326814009531214
-2.05977904474575
-1.8247850714662412
-1.6165421903685742
-1.425192493515658
-1.2435629058090074
-1.0679139030964864
-0.8979842802555816
-0.7363892286608096
-0.5875365988533169
-0.45629928337689346
-0.34670911124399645
-0.26091679359094005
-0.19859912696603785
-0.15690190857293787
-0.13090261868931224
-0.11448008124518702
-0.10140621510928453
-0.0864398237120581
-0.06620929685335418
-0.03971751767713847
-0.008378499890375412
0.024413513453089078
0.05409277345752707
0.07594848109806916
0.08616975450904289
0.08270866090423579
0.06579713822716313
0.03802013034897882
0.003931286172757855
-0.03071660139895134
-0.059982464632115144
-0.07880053478790335
-0.08389842966067518
-0.07439841977091406
-0.051988401336843494
-0.02062670802882993
0.014172475574360233
0.046351813161914716
0.07043217706026758
0.08243375709920998
0.07988160952293205
0.05876900552793292
0.002540185769978426
-4.408230369558212e-09
-1.0628062634289095e-05
-7.949588674220714e-05
-0.00036083304170286194
-0.0012555275661505219
-0.003651069779528404
-0.009268761351526576
-0.02107607359609767
-0.04364766151257161
-0.08328212542287879
-0.1476441756632157
-0.2447478573422883
-0.38124875068229747
-0.5602506534233388
-0.7790867994298222
-1.0277119083380897
-1.2883529687086266
-1.5368702279705944
-1.7458943393138726
-1.8893143829736259
-1.9472287282405534
-1.9101908661555618
-1.7816115476751078
-1.5775584768107158
-1.323845226333528
-1.051030103802387
-0.7885155891623055
-0.5591611908122233
-0.3756351501662459
-0.23921750679599904
-0.14111395107279073
-0.06575157444032531
0.004846994856884694
0.08662045683305314
0.18983552217896582
0.31685940019922465
0.4615940437521935
0.6105078624508403
0.744948057906039
0.8442532735719861
0.889115238554433
0.8646525211976638
0.7627463486831499
0.5833299982546336
0.33449758254569856
0.03148004065317894
-0.30529998269843595
-0.6527599231731468
-0.9878761861589495
-1.2901904081106312
-1.5437649497902417
-1.7383598065383652
-1.8697417038343032
-1.939178731541289
-1.9522966704834372
-1.9175569120159124
-1.844648951718304
-1.7430705894998262
-1.621103276030362
-1.4852932954152656
-1.3404411988302967
-1.1900026871294003
-1.0367318613542598
-0.8833644511746702
-0.7331484985324517
-0.5900789046316597
-0.45876885876882395
-0.34397915838653753
-0.2499077928054129
-0.17940062802871543
-0.13326811490114168
-0.10987805210616015
-0.10514363318987603
-0.11294934274831096
-0.12596979854804477
-0.13675552941226118
-0.13890093377023885
-0.12808507961555046
-0.10279094251893962
-0.0645610260509083
-0.017727859882090618
0.03134799390553827
0.07540940731391851
0.1076108019678693
0.12277408706399726
0.11836852433260338
0.09503617870748607
0.05656303737443224
0.009293339258722649
-0.03891629830830013
-0.0800237034688756
-0.10717877086627081
-0.11591314532321718
-0.1049425442815413
-0.07647429414748542
-0.03607366142695442
0.00757866232243973
0.042234881992968126
0.04963276187167444
0.002205912901519826
-2.8092478700156254e-08
-2.3247049808452162e-05
-0.0001570867783003555
-0.0006625269909528803
-0.002175184797597602
-0.006031862901413058
-0.014727371571384585
-0.03245958216996972
-0.06566023395399061
-0.12335712804124169
-0.21719777897622353
-0.3610044705552745
-0.5698210513362553
-0.8585193803263816
-1.240111768110812
-1.7239365768098074
-2.313862662992565
-3.0066497689810663
-3.7906599211571046
-4.645236482494696
-5.541169406856477
-6.442621586975462
-7.310619184363848
-8.107745778613122
-8.80319259160149
-9.37702587888998
-9.822596699081624
-10.146447453239071
-10.365717963944636
-10.503692529150824
-10.58455136012123
-10.628489870446899
-10.64816536334677
-10.647030616838258
-10.6196566506225
-10.553750462319737
-10.433307378884994
-10.242221863360415
-9.967699534175232
-9.602933034564684
-9.148686544833033
-8.613641614395847
-8.013558883085764
-7.369480203845758
-6.705314399982474
-6.0452060914023535
-5.41107849947967
-4.820674973598337
-4.286315355476647
-3.8144529058508514
-3.40598802335475
-3.0571871770973686
-2.7609848761108284
-2.508421037176183
-2.289985240544098
-2.096694739491864
-1.920810624224383
-1.756179371280375
-1.5982588234060893
-1.4439357131505832
-1.291259217930245
-1.1392015265720086
-0.987518204899157
-0.8367292496694162
-0.6881893935216882
-0.5441761934684236
-0.40790622321896886
-0.2833976785775291
-0.17513029135161404
-0.08750342689097265
-0.024149343637570358
0.012792149969857983
0.023300940159081195
0.009865757280401132
-0.022477930777523934
-0.06652071794277647
-0.11365058168902037
-0.15493422833632486
-0.1823537603754175
-0.19000154724038062
-0.175027298985919
-0.13815978668803605
-0.0836882938893536
-0.01887599709116261
0.0471256674576127
0.10470314363535098
0.14532333079089954
0.16293957239841517
0.15502220859528867
0.12303101974630237
0.07223620764265923
0.010901591805995037
-0.05105138551795181
-0.10369875403283255
-0.13884812279424993
-0.15161410618519156
-0.14157065621059495
-0.11281144314452067
-0.07019119928184624
-0.0029747007574013663
-9.464435511287106e-08
-4.747459186862316e-05
-0.000294014545848158
-0.0011592354087742584
-0.0035952321035464052
-0.009475509892506406
-0.022067684022287704
-0.0464757208787353
-0.08985456511456368
-0.1611465592549941
-0.2701115615034997
-0.42555828571419624
-0.6329353843777774
-0.8917527962715198
-1.1935634994626045
-1.521301646890185
-1.8505404460809167
-2.152708161044674
-2.3996377829284095
-2.5682889255971775
-2.6443258618392234
-2.6235743006306347
-2.5110999225407427
-2.3184596012634877
-2.0602364947907073
-1.7510701796552526
-1.4040353861253747
-1.030602544948174
-0.641804391793552
-0.24985753296519198
0.13056467042707548
0.4819894469887443
0.7849483283245154
1.0197779744980502
1.1690064446456174
1.2197974356390608
1.1659485444947852
1.0090653075499345
0.7587136873479902
0.43154617143252844
0.04956630126555371
-0.36218031312153876
-0.7781364270376728
-1.174630755986337
-1.5318412548974583
-1.8351161119723185
-2.075559471816208
-2.2499046669394307
-2.3597956179535684
-2.410663390496956
-2.410412859863632
-2.3681245756004246
-2.292936269594377
-2.193208572247773
-2.076013874133795
-1.9469285808786694
-1.8100668336850905
-1.6682730738041873
-1.5233915129732776
-1.3765480546933566
-1.2284068990793935
-1.0793913207053194
-0.9298783068143581
-0.780384958677865
-0.6317595686557954
-0.4853746790456809
-0.34329883768225816
-0.2084053987749591
-0.08436753585193338
0.024506435629577963
0.11362273576108718
0.17862828345141948
0.2160638974992978
0.22405571318420078
0.20292761326917086
0.15560823269641935
0.08772093465968071
0.007284450084328925
-0.07598904932040879
-0.15174201160950468
-0.21024126309926194
-0.24369178208207562
-0.24738975495840554
-0.22051677413272175
-0.16641900907034393
-0.09228784514367012
-0.008251184537487742
0.07401767244492143
0.14298076017651207
0.18895467240924205
0.20559811633331235
0.1909233470805532
0.14765605331419734
0.08287458797953699
0.007002083969203777
-0.06756433485832543
-0.12749109104346945
-0.1575361635337871
-0.1336688685298975
-0.0058124433934169184
-2.5370024929731916e-07
-9.15738636998858e-05
-0.0005259906049666751
-0.0019541763674823538
-0.005764705329236506
-0.01454757650202178
-0.032615879139014585
-0.06645863615604009
-0.12495231363679538
-0.219162321591209
-0.3616353266936668
-0.5652047890899282
-0.8414638515801336
-1.1991527703477989
-1.6427357015312163
-2.171412072251249
-2.7787486495081946
-3.45304567320471
-4.1784518884959745
-4.936697629279526
-5.709132305554002
-6.478597465391939
-7.230634310710552
-7.953678630448667
-8.638212728752318
-9.275207790037864
-9.854449652278817
-10.363387580677454
-10.786967054767066
-11.108585833406952
-11.311975167261691
-11.383566457387268
-11.314812903337337
-11.103988871953732
-10.75713958058545
-10.288042039155288
-9.71721759114992
-9.070178237268232
-8.375181157375964
-7.6608067863105145
-6.953669190223097
-6.276520383729372
-5.646932738882898
-5.076648825238337
-4.57159078143712
-4.132436217626915
-3.7556063801035453
-3.434481654690924
-3.16066036793278
-2.925104688503289
-2.7190636066502876
-2.534716898008987
-2.365535363026769
-2.206393351274734
-2.0534948954866343
-1.9041837248068567
-1.7567023701481326
-1.6099511706917087
-1.4632797889460056
-1.3163268951604081
-1.1689114524633113
-1.0209728124710276
-0.8725557546821592
-0.7238382214091711
-0.5752007147256903
-0.4273344478549113
-0.2813790212822752
-0.13907012196445281
-0.0028658913092362128
0.12398910714216595
0.2375068402307707
0.33314399971746633
0.40615635031097264
0.45211252092628634
0.4675264583732589
0.450533324240181
0.4015061674312367
0.3234974211126324
0.2223955478980337
0.10671520565081546
-0.013012721516629648
-0.1252230391832577
-0.21857575455037245
-0.28333992341211894
-0.3127084886864593
-0.30383887898887074
-0.258435619292746
-0.18274568861651105
-0.08691848033375117
0.01622176788962149
0.11284789595882831
0.19002565239475958
0.23757102463522933
0.2496167998759546
0.22571734317153164
0.17149752089766224
0.09913243519296629
0.028142855073943075
-0.014102931811350144
-0.0007392102018669222
-5.952084574065951e-07
-0.00016817707594184088
-0.0009035631840810275
-0.0031791892560379636
-0.00894680827998656
-0.021640897297499153
-0.04665151913363003
-0.09157298801830796
-0.16599279564724428
-0.28061520290506675
-0.445639191318759
-0.6685191425682006
-0.9514727317506314
-1.2892773932650925
-1.6679332784867162
-2.0646351527668543
-2.4492292261789923
-2.787029449745753
-3.0426290808806438
-3.184213204810074
-3.1878358151489863
-3.041119628254679
-2.7458422870760524
-2.3189185326667148
-1.7914358595811823
-1.2056861549035565
-0.6105190347758443
-0.05571334325097334
0.4137091849892438
0.7623035193501673
0.9674525413013286
1.0207113079262722
0.9272900337499533
0.7040241793940458
0.37634811933906936
-0.025177359327069125
-0.46829816992652223
-0.9220917467923206
-1.3593447897917643
-1.7581656933744647
-2.1028148873904238
-2.3838167513070294
-2.59747634775086
-2.744962668349203
-2.8311366967017966
-2.8632976271721566
-2.8499965083344203
-2.800028443508024
-2.721669196661546
-2.622177075815077
-2.507542811984214
-2.3824432376215268
-2.250340652815367
-2.1136680320755046
-1.9740478884744748
-1.8325058558593188
-1.6896549966776617
-1.5458403679486827
-1.4012435931359912
-1.2559535409851417
-1.1100122380982855
-0.9634459788179875
-0.8162914314696735
-0.6686261442932939
-0.5206123288490697
-0.3725616001642798
-0.22502557587054914
-0.07891206364953046
0.06438125099573477
0.20283348605508622
0.3336955070299944
0.4534487342480111
0.5578659108471954
0.6422067054769822
0.7015667220050293
0.7313755335041789
0.7280102748840876
0.6894606199446535
0.6159545126107424
0.5104380614619257
0.3788028928608596
0.22977318969033075
0.0744026658474272
-0.07481476289026599
-0.20515493905242696
-0.30506775850228895
-0.36560096913972456
-0.38164222077566134
-0.3527810919622177
-0.28362805078435943
-0.1834920956999027
-0.06540461944473532
0.055429786341421344
0.16359013618754253
0.2455701644609674
0.29176709119108996
0.29772671838370635
0.26287720802359765
0.18089051949605023
0.007697597364585197
-1.2725643958156144e-06
-0.00029595149776905755
-0.0014976096048308417
-0.005014476648386348
-0.013516908666420168
-0.03146650178132078
-0.06553793935192906
-0.1247348286693831
-0.22001306014001581
-0.36332111836307535
-0.5661406456407885
-0.837815632572559
-1.1841153466451322
-1.6064985508306204
-2.1023806997288452
-2.6663666729950597
-3.292001151407937
-3.9732763177748804
-4.70509526102254
-5.482206256546613
-6.296728116121137
-7.135052695791557
-7.975341801222025
-8.786811283882955
-9.531487892046634
-10.168324099975582
-10.658780181684724
-10.972525695231491
-11.091916821608763
-11.014319077694447
-10.751970907560667
-10.329688225812962
-9.781118326945831
-9.14439719094869
-8.457981099705707
-7.757202431226528
-7.071838566161164
-6.424753737996969
-5.8315109185608724
-5.300758267148702
-4.835159011507573
-4.43263689986812
-4.087736114825491
-3.7929339766565167
-3.5397898662299636
-3.319859625921267
-3.125347208205281
-2.949501079657193
-2.786789276417058
-2.6329027875541953
-2.484642400841321
-2.3397409755184606
-2.196663958561618
-2.0544188230207396
-1.912391704877332
-1.770218871766286
-1.6276928906850885
-1.4846987219263896
-1.3411730524558145
-1.1970802506133134
-1.0523995863543938
-0.9071201906154126
-0.7612422382636856
-0.6147848405168153
-0.4678029992064424
-0.32041750152443016
-0.17286244206792722
-0.025554608644737555
0.12081331517197977
0.26515828121245777
0.40588036077117895
0.5407415349225198
0.6667753287949014
0.7802590512994307
0.8767823849987894
0.9514417569196565
0.999178047076384
1.0152558080384533
0.99585697505869
0.9387344218745886
0.8438453882542458
0.7138671494862965
0.5544923791280515
0.3744131470738131
0.18493169520297756
-0.0008187011685640293
-0.16900331297284726
-0.3064671173313726
-0.40221564800436344
-0.4488069039637398
-0.4434538560998238
-0.3886561764159084
-0.29223317364432333
-0.16672213317152296
-0.028257277126903797
0.10467112689986678
0.21154374686458982
0.2667227929286531
0.22752266917123312
0.009844548583202524
-2.533602743987366e-06
-0.0005014332273549303
-0.0024027588533462392
-0.007683358416935623
-0.019886131288875362
-0.044616166262059824
-0.08980108030543302
-0.16548290359841858
-0.2829456161184859
-0.4530969606904619
-0.6841981396429646
-0.9792284170466106
-1.3333371063220079
-1.7319406529915609
-2.150050958006307
-2.5533546774209297
-2.901366778408001
-3.1526167803425067
-3.271301481452714
-3.2342624835008844
-3.0367317386886254
-2.69526780415817
-2.2468055935577427
-1.743678788030074
-1.2455534304471094
-0.8100504196120552
-0.48413487784674664
-0.2980296689202481
-0.26262516804272945
-0.37041300046411424
-0.5991797501505934
-0.9172572375883051
-1.2890792713050803
-1.6800493037797095
-2.060125185660376
-2.4059299577012223
-2.701506038458203
-2.9380095524695737
-3.1127034956497077
-3.2275877396827317
-3.28793859051758
-3.300950660947253
-3.2745977412257865
-3.216766080430187
-3.1346657689496364
-3.034493319434832
-2.9212993445774034
-2.799007195540417
-2.6705290881254315
-2.537933001428895
-2.4026238949670535
-2.265514202759254
-2.127169247657623
-1.9879219313246201
-1.8479572213061448
-1.7073705876872607
-1.5662060585817483
-1.4244795900294014
-1.2821926242154131
-1.1393395756715545
-0.9959119120059416
-0.8519007015614117
-0.7072990868905548
-0.5621061386409364
-0.4163339272153306
-0.27002033867617675
-0.12325098721891041
0.02380575012176847
0.17084644242588404
0.3173598677923957
0.4625330934890468
0.6051398655640872
0.7434207121739228
0.8749711691226123
0.9966614925118699
1.1046165218907815
1.1942861455679181
1.2606333635779732
1.2984570659220829
1.3028501556222414
1.2697716700802346
1.1966866367974895
1.083203345943266
0.931619128888793
0.7472772552715193
0.5386430252361186
0.3170286241684118
0.09593342836792951
-0.10998410340953373
-0.28623127972371
-0.41997828580769364
-0.5015639792089713
-0.5258347940766355
-0.4931741505708077
-0.4101852823141186
-0.2902081887943168
-0.1541899708051974
-0.032579362826513455
0.0329708032892328
0.0016241956101421102
-4.762331129822169e-06
-0.0008214152911517753
-0.0037441558573332694
-0.01147252229748234
-0.028590254422930582
-0.061985128232439506
-0.12092204503302598
-0.21657645431635578
-0.36095616775687095
-0.5653417987141715
-0.8386009525033591
-1.1858764005015467
-1.6081080018434586
-2.1025739294579218
-2.664193370623868
-3.286905419890041
-3.964265475457253
-4.688644890105015
-5.449051242824202
-6.2283514364441075
-7.00120446990401
-7.733995651079583
-8.387455942435356
-8.92168597555407
-9.302395937208988
-9.506700204583797
-9.526938806500775
-9.371637601977028
-9.063576221209386
-8.63568072440819
-8.125872437664054
-7.57202807760384
-7.007927438670209
-6.460644741577703
-5.9494338334421615
-5.485865819904519
-5.07483269472453
-4.716012570115303
-4.405456555710249
-4.137057821160555
-3.9037652311709055
-3.698487759410544
-3.5146949407337655
-3.34675406817187
-3.1900614081634773
-3.041027879957578
-2.8969743119696916
-2.755981426060494
-2.6167279938379644
-2.4783391836977597
-2.3402572707392353
-2.202139288867936
-2.0637810283372655
-1.9250638047180966
-1.7859191949133295
-1.6463069100872594
-1.5062016391180868
-1.3655856375761848
-1.2244447794132127
-1.082766584653367
-0.9405393424204789
-0.797751889312867
-0.6543939414803621
-0.5104571937729954
-0.3659377695688964
-0.22084109232122814
-0.0751908790457455
0.07095531228018277
0.2174808443005814
0.36417148928989995
0.5106602088472957
0.6563528975866326
0.8003351754510925
0.9412642030734648
1.077254752964253
1.2057748946312814
1.3235727074406023
1.4266601005585209
1.5103815534338922
1.5695929014649472
1.5989670824122053
1.5934296860420705
1.5487079194879112
1.461954125535594
1.3323823292042338
1.1618373395661579
0.9552048921202442
0.7205719330417393
0.4690608968987264
0.2142910974242154
-0.028538282743021323
-0.24390138019606736
-0.41744769860376024
-0.53763334962384
-0.5973419635363407
-0.5952910149724314
-0.5366292913970403
-0.43039312415282494
-0.27523301876846007
-0.011554885021734993
-8.528959506333337e-06
-0.0013051337294633693
-0.005680105054478116
-0.016721837227418903
-0.04020337915351431
-0.08434164172924621
-0.15955444499274427
-0.2775169337596415
-0.4494508085415994
-0.6837675494794258
-0.9833941289776469
-1.3432912704602094
-1.7487901112049797
-2.1753848794058572
-2.5904821416440207
-2.9572798866888537
-3.240434380214613
-3.4125655386142983
-3.4601548170853733
-3.3872476102618365
-3.21574547191971
-2.981922665082591
-2.729863664664678
-2.5034073787413456
-2.338567921897117
-2.258156081511399
-2.2695795501973546
-2.3658594164556277
-2.5290990314264987
-2.7352040947814307
-2.958632352876834
-3.176250037890688
-3.3698174746606
-3.527052357392354
-3.641520095460562
-3.7117434337411113
-3.739931428436919
-3.730650953143545
-3.6896535914008086
-3.622964703447069
-3.536259621582328
-3.4344997388642007
-3.321775245085823
-3.2012943141153367
-3.0754633218309078
-2.946013259248066
-2.8141398130989392
-2.6806361417199995
-2.54600691051995
-2.4105592212167215
-2.274470741414757
-2.137837978323976
-2.0007087361717018
-1.8631028599359873
-1.7250248453095334
-1.5864711296015428
-1.4474340992455978
-1.3079041823247572
-1.167870886417825
-1.027323290906024
-0.8862502826321684
-0.7446407039164711
-0.602483539528076
-0.4597682952985465
-0.3164858220075459
-0.17263003284748843
-0.02820127481242019
0.1167874414181987
0.2622995852744216
0.4082572369845745
0.5545132766613035
0.7008104496914339
0.8467244375277927
0.991589241761633
1.1344054956674823
1.2737358764879105
1.4075964950648383
1.5333585623780126
1.6476799963645818
1.7464908365664797
1.8250580756904857
1.8781534972265368
1.9003413061791141
1.8863903134999047
1.8317985888378594
1.7333982541545891
1.5899869082529339
1.402913351965638
1.1765325828857356
0.9184421020863488
0.6394213937988665
0.3530210837024189
0.07479035562604384
-0.17879932362140313
-0.3915386277946118
-0.5482321802130918
-0.6335093433730047
-0.6245327737421174
-0.46689896211508297
-0.019845653205032593
-1.4652900019932017e-05
-0.0020170716467178603
-0.008408629404950213
-0.02384239187783002
-0.055423494680385134
-0.11276209565455071
-0.20744665987297237
-0.35186112094110683
-0.5574839596943131
-0.8330253491103837
-1.1828883904336078
-1.6063920832942304
-2.0979425938394605
-2.6479657073943086
-3.24408828506077
-3.871964852334653
-4.515375731610732
-5.1556928221348635
-5.771284067297158
-6.337640831689605
-6.828817363744928
-7.220234683695254
-7.492272502545426
-7.633651165216678
-7.643582571788011
-7.532040280157024
-7.318086312561991
-7.026748418292823
-6.685270689569765
-6.319590303527761
-5.951676754331399
-5.598033190200335
-5.269333978269599
-4.970946836543523
-4.703990903673785
-4.466595017274819
-4.255100245949109
-4.065052975869972
-3.89192744543326
-3.731583462360952
-3.5805032611404046
-3.43586602969572
-3.2955173632750325
-3.1578811900458317
-3.0218490737738626
-2.886669640121835
-2.7518508792017786
-2.6170807693553733
-2.482166896719205
-2.3469930468371745
-2.211489560234886
-2.075614048145832
-1.939339426469656
-1.8026468295384368
-1.665521604968961
-1.527951153449606
-1.389923816888304
-1.2514283319915867
-1.1124535734852306
-0.9729884389884695
-0.8330218023176486
-0.6925425055877519
-0.5515393902925163
-0.41000139850339146
-0.26791782270614173
-0.12527886468053148
0.017923197893484132
0.16169171988786446
0.30602143621027994
0.45089098746585654
0.5962504551004794
0.7420016141179938
0.8879681979231107
1.0338533517390696
1.1791818622221542
1.323225939650231
1.464915502543335
1.6027371658296057
1.734630362888157
1.857893879306396
1.9691208884269358
2.0641844279230757
2.138297028771795
2.186166763230196
2.202266372116783
2.1812218690909893
2.1183123041246406
2.010054300095841
1.8548256725294365
1.6534651022018507
1.4097739050934992
1.130847927728226
0.8271938468795894
0.5126592329678783
0.20438854537734746
-0.07655500416846639
-0.3023154474477286
-0.42972509413057974
-0.38057024188670474
-0.01634366171185001
-2.427449991827631e-05
-0.0030395202163881786
-0.012169258483113269
-0.03329708629380402
-0.07493027531512941
-0.14791675313272784
-0.2644350192479222
-0.43621343625568443
-0.6721616213216949
-0.975815029044587
-1.3431540087949303
-1.7614072155654275
-2.209352240233381
-2.6593738692048574
-3.0811550461506436
-3.446426494084727
-3.7338099162061162
-3.932607381759912
-4.044534234923395
-4.08287768738436
-4.069259090629235
-4.028848626001627
-3.9852830603687295
-3.9565308392295315
-3.95256056501916
-3.9750700227364364
-4.018952322444705
-4.074798618571741
-4.131639819101217
-4.179275345847426
-4.209816639097975
-4.2183658851967785
-4.202969386617521
-4.164095119709584
-4.103895295534691
-4.025461815245181
-3.932204139033195
-3.827404740174319
-3.7139526498358175
-3.594224283923449
-3.4700690581023577
-3.3428586570689234
-3.2135668624326823
-3.082856855372779
-2.9511621052649737
-2.818754093550711
-2.685794972014632
-2.552376116174391
-2.4185449059192106
-2.2843224505917816
-2.149714792647387
-2.0147196776608594
-1.8793304659157843
-1.7435382922765594
-1.607333204527176
-1.4707047346652016
-1.3336421706620616
-1.196134677769652
-1.0581713481051298
-0.9197412180446702
-0.7808332726750515
-0.6414364474381483
-0.5015396351911905
-0.36113171146870254
-0.22020160419268375
-0.07873846238008693
0.06326796841528988
0.2058265637462177
0.34894328136915187
0.492618291637934
0.6368408910770068
0.7815809162020259
0.9267749221969633
1.0723049508041371
1.2179673989414523
1.3634294774424058
1.5081712173135056
1.6514121461098332
1.7920237887396893
1.9284321176683972
2.0585178986427746
2.179527244672217
2.2880090507537783
2.3797995462458092
2.4500760129854755
2.493500777346248
2.50447204715728
2.4774895840045366
2.407630843829415
2.291118481160193
2.1259462042158908
1.9125232246079844
1.6543100671057214
1.3584727804296657
1.0367156945172509
0.7067006984209437
0.39473333314292985
0.13991517346571386
-0.004764750026409601
-0.0005787187109731251
-3.8946209092381284e-05
-0.004476287289921001
-0.017255421001869786
-0.045659495400499475
-0.099690430636343
-0.1914549845766006
-0.333838655190616
-0.5385868192076182
-0.8141548457482409
-1.1638282873489865
-1.5845943628114187
-2.067048819836573
-2.5963116607373813
-3.1536289280746312
-3.7181881820872302
-4.268736787630452
-4.7848194919269025
-5.247711335573128
-5.641267410465077
-5.952868691603227
-6.174452705349653
-6.303403296324497
-6.34296697685531
-6.301928756734068
-6.193486295226438
-6.0335075542703995
-5.838534960537154
-5.6239443340958255
-5.402581095947496
-5.184032058648665
-4.97451803047683
-4.777265344049196
-4.593157146265328
-4.421472147619765
-4.260566313378549
-4.108414981067462
-3.962988668968427
-3.822474862944144
-3.6853785541625883
-3.550539843655649
-3.4171030624789287
-3.28446368943677
-3.152210496639738
-3.020072809394311
-2.887877264236684
-2.75551494754016
-2.62291789616393
-2.4900431510239756
-2.3568624384706798
-2.223355785278943
-2.0895077343003727
-1.9553051939880708
-1.8207362658069874
-1.6857896299191935
-1.5504542350530761
-1.4147191465825169
-1.2785734731708094
-1.1420063306944759
-1.0050068231232814
-0.8675640308861712
-0.7296670026439303
-0.591304749134382
-0.4524662396209344
-0.3131404038661411
-0.17331614716768837
-0.03298239552012277
0.10787179315162063
0.2492569805025332
0.39118282911356506
0.5336570793531175
0.6766836313457505