# vtk DataFile Version 4.1 
COMMENT
ASCII
DATASET STRUCTURED_POINTS 
DIMENSIONS 100 100 1 
ORIGIN 0 0 0
SPACING 0.12693303650867893 0.12693303650867893 0 
POINT_DATA 10000
SCALARS U double 1
LOOKUP_TABLE default
0.0
0.0
0.0
0.0
0.0
0.0
0.0
0.0
0.0
0.0
0.0
0.0
0.0
0.0
0.0
0.0
0.0
0.0
0.0
0.0
0.0
0.0
0.0
0.0
0.0
0.0
0.0
0.0
0.0
0.0
0.0
0.0
0.0
0.0
0.0
0.0
0.0
0.0
0.0
0.0
0.0
0.0
0.0
0.0
0.0
0.0
0.0
0.0
0.0
0.0
0.0
0.0
0.0
0.0
0.0
0.0
0.0
0.0
0.0
0.0
0.0
0.0
0.0
0.0
0.0
0.0
0.0
0.0
0.0
0.0
0.0
0.0
0.0
0.0
0.0
0.0
0.0
0.0
0.0
0.0
0.0
0.0
0.0
0.0
0.0
0.0
0.0
0.0
0.0
0.0
0.0
0.0
0.0
0.0
0.0
0.0
0.0
0.0
0.0
0.0
-5.182962134367163e-12
2.5421670316484873e-09
2.8473732951570903e-08
1.6300474656110615e-07
6.695941872315524e-07
2.226952226173777e-06
6.365590311441325e-06
1.6195201102473842e-05
3.7516941074852666e-05
8.039928432161082e-05
0.0001612590525382023
0.0003054311096235865
0.0005501363932443113
0.0009476781082006608
0.0015686225032928932
0.0025046667159847446
0.0038708727563992163
0.0058069607134712
0.00847740701849721
0.012070180447872532
0.016794059565256775
0.02287459686789537
0.03054891179883191
0.04005959247490036
0.05164805261733238
0.06554771812027797
0.08197740434129576
0.10113519306125514
0.12319303422922893
0.14829219269490188
0.17653954690613172
0.20800463844176173
0.24271728089729502
0.28066547461996905
0.3217933476258602
0.3659988565529438
0.4131310345645341
0.4629866616913113
0.515306349720954
0.5697701682411225
0.62599307889779
0.6835205787745469
0.741825068908083
0.8003035496619547
0.8582772925469508
0.914994142357014
0.9696340612335049
1.0213184370898876
1.069123544451768
1.1120983695629811
1.1492867983103345
1.1797539213072226
1.202615943420099
1.2170729056152039
1.222443148242744
1.2181981812516276
1.203996391897366
1.179713823610533
1.1454701036651298
1.1016474801292293
1.0489008519990246
0.9881566616313929
0.9205986248014716
0.8476386083695306
0.7708716717875088
0.6920154987382323
0.6128362019954094
0.5350646550620372
0.46030972751665566
0.38997651910582226
0.32519828162921116
0.2667897274606599
0.21522677208766824
0.17065387420021436
0.1329158933473599
0.10160784414647199
0.07613398084148357
0.055767710950259966
0.03970572306439405
0.027112740600271548
0.0171565829276175
0.009035908746204625
0.0020045763285196153
-0.0046032823998014265
-0.01134463512310259
-0.018635024226454515
-0.02671508890672331
-0.03562240778847219
-0.04517724945036159
-0.05499100547802818
-0.06450337824283082
-0.0730487868599908
-0.07994471867392725
-0.08458566224629144
-0.08651382703214444
-0.08540926605530186
-0.08084920219523341
-0.07137164021989317
-0.051357128724196136
-0.0022405540703307417
-1.0569843392771555e-11
8.79996651690721e-09
7.942383487801585e-08
4.0055465013117687e-07
1.498092659165017e-06
4.61432644711871e-06
1.2343268072778099e-05
2.9595363626047157e-05
6.493966392669103e-05
0.0001323249976904364
0.0002531174797363625
0.00045831871003743595
0.0007907599298197812
0.0013070160954360944
0.0020787624608695748
0.0031933125190530313
0.004753131494468131
0.0068742087545487695
0.009683284459165645
0.013314045621430189
0.017902518407700935
0.0235819722685565
0.030477706270873407
0.03870210269374295
0.0483503069229919
0.05949683035879688
0.07219328285099026
0.08646733401466784
0.10232289048314934
0.11974137000355471
0.13868386284057613
0.15909390332156567
0.18090053379498586
0.2040213312209181
0.22836508195903568
0.253833829885318
0.2803240820685557
0.3077270292754337
0.33592771960742035
0.3648032068207362
0.39421977513980616
0.42402941535274713
0.4540657895186709
0.4841399718053513
0.5140362900933428
0.5435086172841681
0.5722774735368221
0.6000283016463871
0.6264112673409875
0.6510429127000419
0.6735099504996008
0.6933754247333359
0.7101873723245812
0.7234900002111078
0.7328372438930162
0.7378084110840142
0.7380254604186574
0.7331713490086992
0.7230088269723675
0.7073990621374111
0.6863195053776986
0.6598803747745502
0.6283389398169612
0.5921103461928867
0.5517730552008929
0.5080662565012847
0.46187619605799923
0.4142086811229632
0.3661464365610139
0.31879254495841614
0.2732044938996268
0.23032650350591163
0.19092971506000497
0.1555695747424869
0.12456705109613311
0.09801573446535428
0.07581165874850689
0.057698398762431644
0.04331782796481362
0.03225727879671192
0.024086273334433795
0.01837947630863234
0.014726011521133732
0.012728078553979207
0.011993664009306423
0.01212906898407996
0.012736949490669603
0.013424412831713535
0.013823255757781218
0.013620826321572856
0.012595982485831677
0.010651485824321948
0.007833350813464465
0.004330338267817535
0.0004538914722711712
-0.003387408949816351
-0.006676570261882692
-0.008634332412168554
-0.007687352872093238
-0.00038668458370506024
-1.1095340088456388e-11
2.847818906850036e-08
2.2611371207463347e-07
1.0540519842902613e-06
3.7228088882729502e-06
1.0960877964499926e-05
2.8250750270909685e-05
6.56410435928823e-05
0.00014019293874076934
0.00027903825211872483
0.0005229241893877443
0.0009300115393552897
0.0015795977717758326
0.0025753728606022564
0.004047798075162638
0.006155233622792552
0.009083528358217631
0.013043913919357704
0.018269200267106617
0.02500842980380408
0.03352029282791606
0.04406572053076541
0.05690014042979135
0.07226589655893655
0.09038530273587009
0.11145471733380985
0.13563991220726748
0.16307286969114393
0.19384999418885174
0.22803158296025158
0.26564227718747896
0.3066721199114778
0.3510777898619215
0.3987835642536793
0.44968159069862135
0.5036311166308488
0.5604564291703346
0.6199433915867651
0.6818346147671697
0.7458234621872675
0.8115472430692539
0.8785800892129488
0.9464261261922174
1.014513631101912
1.0821909114873238
1.148724641281788
1.2133013503578103
1.2750326879513596
1.3329649713465883
1.3860933941119116
1.4333811050064535
1.4737831777396986
1.5062752667288886
1.5298864748471486
1.543735635943317
1.5470698347874334
1.5393035639596564
1.5200564913860548
1.4891874551687463
1.4468221099565495
1.3933717188314956
1.329540977431309
1.2563234544992816
1.1749841120190287
1.0870292163743835
0.9941645407025093
0.8982429581390918
0.8012024172257193
0.7049952023111796
0.611509788244413
0.5224878850657132
0.4394414421171838
0.3635768890193361
0.29573569467942057
0.23636028047589286
0.18549174067081775
0.142800939697203
0.10764863350598787
0.07916517629953404
0.056337837693085306
0.03809453989272064
0.02337638548926069
0.011196068936818373
0.0006832132446196578
-0.008880536835460506
-0.01803448058954657
-0.027119959530609392
-0.03627210159959351
-0.04542600494994556
-0.054340551304610574
-0.06264061177383301
-0.06987478273850711
-0.07558162456040482
-0.07935237912963582
-0.0808686780722106
-0.07986571819908501
-0.07587844623661492
-0.06732848814041935
-0.04859314164938803
-0.0021171930448730344
3.4473380139009716e-11
8.325269690860156e-08
5.926354850110509e-07
2.5641517552358173e-06
8.54402016257295e-06
2.3959531570552043e-05
5.918542172492587e-05
0.0001323818133692425
0.00027306949041640727
0.0005262668564032873
0.000956863228697814
0.001653773661735344
0.002733339294719047
0.004341425493334604
0.0066537374291619515
0.009874015089957828
0.014229969947472011
0.01996705691316871
0.0273404064145557
0.03660544180952355
0.0480078518268218
0.061773660024207026
0.07810012748630227
0.09714814530379641
0.11903663229942359
0.143839269244173
0.17158369447175806
0.20225307837544404
0.23578980450384224
0.27210082775982625
0.3110641657777362
0.35253591330518025
0.3963571522634208
0.44236015922959926
0.49037338156987165
0.5402247555203368
0.5917430651471552
0.6447571808703341
0.6990931608583137
0.754569339565422
0.8109896576159966
0.8681356002653596
0.9257572036943084
0.9835636572866283
1.041214075682331
1.0983090385803103
1.1543835023363795
1.2089016796863608
1.2612544668244805
1.3107599739292706
1.35666768697597
1.398166752339817
1.4343988230353475
1.4644758219736336
1.4875028427259958
1.5026061972647704
1.508966309446182
1.505854729260997
1.4926740153213442
1.4689986458283963
1.4346145564781019
1.3895544849277557
1.3341261465151615
1.268930452439571
1.1948674951417537
1.1131287378883428
1.0251745486095287
0.9326967237744385
0.837565923146131
0.7417641996125802
0.6473035043008354
0.5561326460809544
0.47003785638097684
0.39054542572463213
0.318837741149528
0.2556950012691513
0.2014727163329799
0.1561195671464283
0.11923239834964927
0.09013730921695584
0.06798059301796489
0.051812576180845296
0.040651586612683276
0.03352294638868742
0.02947641997234071
0.027592117419857513
0.026987418347753752
0.026835443118921377
0.026399839010914715
0.025083133263999177
0.022479024571069997
0.018414930563539957
0.012971443193084672
0.006471008915728386
-0.0005595899449769153
-0.007424984801593365
-0.013218332511438351
-0.01651532187561516
-0.014414213431532942
-0.0006727821948877483
2.7141719840101517e-10
2.2444683159663282e-07
1.459187821466909e-06
5.916932706297213e-06
1.8724335541450828e-05
5.027731159256605e-05
0.00011959364623824151
0.00025866403367745154
0.0005176218181687995
0.0009703535040196383
0.0017199948236971063
0.0029036393435686457
0.004695557900686173
0.007308301525031495
0.010991233045206236
0.0160262808683468
0.02272099729946216
0.0313992923199609
0.042390462764492806
0.05601731506314112
0.07258426792866474
0.09236631384522594
0.11559962180508117
0.14247439514987986
0.1731303804999669
0.20765518186898768
0.24608529248172165
0.28840953646326867
0.33457442954044486
0.3844908329572688
0.4380411936199211
0.49508663729410235
0.555473208170971
0.619036622302993
0.6856050173400098
0.7549993283222474
0.8270310896681302
0.9014976469050537
0.9781749477294582
1.0568082602444038
1.1371013267877847
1.2187045957984546
1.3012032746031716
1.3841060082124939
1.4668350115235798
1.548718466297063
1.6289859444998223
1.7067675430138352
1.7810973192786055
1.85092151041203
1.915111904232619
1.9724846091894823
2.021824335285692
2.061914137200184
2.091570366574395
2.1096823136004677
2.115255672591204
2.1074585361876177
2.0856681208574557
2.0495158923856205
1.998928268429507
1.9341597343376136
1.8558151473571856
1.764858340290465
1.6626049236897649
1.5506983644755352
1.431069780523105
1.3058831091904262
1.177468045877388
1.0482432262609058
0.9206316779461162
0.7969700900595841
0.6794136485227074
0.5698396305534535
0.46975567050879186
0.3802218354446037
0.3017979469441522
0.2345273847616313
0.17796496096408748
0.13124965133543542
0.09321464761056131
0.06251979486664486
0.03778730205231078
0.017721887184231358
0.0012009558382308238
-0.012672557564843978
-0.024554557313761223
-0.034875131675699576
-0.043875014494560396
-0.051652342884448775
-0.05821014260947515
-0.06349756749448708
-0.06744059494295046
-0.06995842269934167
-0.07095505904469719
-0.07024730099243846
-0.06729940374150191
-0.06036572614426884
-0.04388624224333074
-0.0019077167018255303
1.1253625283488952e-09
5.637666406818473e-07
3.3890024128429858e-06
1.2961427364204836e-05
3.910558947582012e-05
0.00010079968430834685
0.0002312775132477422
0.00048423070918569014
0.0009406561006606613
0.0017156450109744633
0.0029642380359344
0.004885414444371679
0.0077233721624934614
0.01176547799990252
0.017336598632395606
0.024789912533839165
0.03449469464633649
0.04682190437783007
0.06212865005961866
0.08074272291572675
0.10294838362973784
0.12897445509528205
0.15898554982279536
0.1930769718530347
0.2312735156662333
0.2735320711651911
0.31974766155486023
0.3697623096640785
0.4233759599010323
0.4803585822469384
0.5404625500821091
0.6034344093488133
0.6690252338257965
0.7369988798038285
0.807137602370614
0.8792446641771833
0.9531437459103103
1.0286751465106594
1.1056889321836245
1.1840353492393276
1.2635529507693388
1.3440549965507933
1.4253147665180737
1.507050479865005
1.5889105358899014
1.6704597931343503
1.7511675866708347
1.8303981579697735
1.9074041469454763
1.981323780156684
2.051182388377521
2.1158989008389084
2.174297983839194
2.2251284987645414
2.267088917648967
2.2988602115746812
2.319146470963306
2.3267230823772502
2.3204916444295374
2.2995399575251625
2.26320441799363
2.2111310973325855
2.1433308663699644
2.060223354877854
1.9626645483654053
1.8519535820405055
1.729815820641777
1.5983614296343704
1.4600209580225665
1.3174614597285894
1.1734879391600987
1.0309352545849502
0.892555295791941
0.7609038651199688
0.6382318941326769
0.5263867375579561
0.42673094864131655
0.3400871325946394
0.2667169232812946
0.2063390053745355
0.15818564751635553
0.12109087025487468
0.09359829995980004
0.0740748429749528
0.060818220432841325
0.05215118191859369
0.04650069974225964
0.04246427692861731
0.038866241518002526
0.034804660462036265
0.029685831495171306
0.023240445919310588
0.015515577760958545
0.006841389854767243
-0.002216647417858447
-0.01088335853345549
-0.018082731600989464
-0.022009035292453686
-0.018908867793708733
-0.0008568817885391967
3.6898932321151237e-09
1.3297834539933136e-06
7.461202450181176e-06
2.7058832029116053e-05
7.811419752421404e-05
0.0001938027608875127
0.0004298240866394592
0.0008727158948815712
0.0016482933134434371
0.00292911717446398
0.004939801536619418
0.00795906492012148
0.012317708692744967
0.018392130257138543
0.026593482319476953
0.03735309480652939
0.051105208767139025
0.06826837416619028
0.08922700267100472
0.11431453595525695
0.14379950731644062
0.17787547476306764
0.21665543201835993
0.2601709066346581
0.30837557336740834
0.3611528788129019
0.41832691175608494
0.47967557346271955
0.5449450046594473
0.6138642055197356
0.6861588314819511
0.7615632488622731
0.8398300772734577
0.9207366188148465
1.004087766079657
1.089715182723349
1.177472753171195
1.2672284942226095
1.358853303462312
1.452207080476954
1.5471228903620415
1.6433899392585498
1.7407361945620297
1.8388115060809422
1.9371720697057735
2.0352670262795307
2.132427912864054
2.2278615919109757
2.320647188286776
2.4097374772359275
2.493965098855346
2.572053932745833
2.642635949481615
2.7042738534892394
2.7554898243608643
2.7948006194297568
2.8207591797481095
2.8320026401813183
2.8273062408442224
2.8056420437219862
2.766240574335499
2.708652575574412
2.6328070777162296
2.539061116582318
2.4282358854105275
2.301634118291531
2.1610342615301477
2.008658553842105
1.8471143659035534
1.6793106824568182
1.5083539353075408
1.3374290260274047
1.1696720704985317
1.0080413172995413
0.8551923879399125
0.7133641327853671
0.5842823598398275
0.4690901507410097
0.3683143382856765
0.28187651341417636
0.20915257480916238
0.14907742511853558
0.10028257900424167
0.06124695157388809
0.0304378033547258
0.00642140465649109
-0.012068936663622229
-0.02610871200075864
-0.036592570050431275
-0.04426318373070715
-0.049741638779148716
-0.0535466435673213
-0.05609679716291312
-0.057695225910124895
-0.058491941238869555
-0.05839218334383752
-0.056794878415517586
-0.05181876910823398
-0.03809784625774935
-0.001650971215899808
1.0505399326352418e-08
2.963180017830185e-06
1.5631368852366324e-05
5.398882144906295e-05
0.00014957219389975711
0.0003579691444199883
0.0007687329511909624
0.0015157145208979333
0.002786451628630012
0.004829093407726731
0.007955424510232281
0.012538889664164147
0.019007056097575706
0.027828600892064976
0.03949556758725173
0.05450220061059007
0.07332205955285714
0.09638529420140579
0.12405791879311188
0.15662468593834808
0.19427677609716273
0.23710504810462027
0.2850991015191062
0.3381519360074906
0.3960695966609248
0.4585848915914755
0.5253740690786685
0.5960752433660228
0.6703073497491482
0.7476884747124862
0.8278525277285659
0.9104633808163349
0.9952257851470953
1.0818925687944763
1.1702678168345397
1.260205927405275
1.3516066196624987
1.4444061374338701
1.5385650418650865
1.6340531137841723
1.7308319884349044
1.8288362187347746
1.9279535064207216
2.028004853165016
2.12872536813374
2.229746429591784
2.330579844286428
2.430604590716376
2.529056684407662
2.6250226788475217
2.7174373266020457
2.805085977860306
2.886612385680129
2.9605327035300033
3.0252565714183888
3.079116246915216
3.120404689285179
3.1474232854957234
3.1585394571789878
3.15225366671538
3.1272743406231998
3.082597989948599
3.017590431998331
2.9320636748349447
2.8263419478626575
2.7013098218577913
2.558435627792135
2.3997646460815587
2.2278788214548038
2.0458228470567343
1.8569998752373116
1.6650431846057747
1.4736721949632972
1.286541859599002
1.1070937390763815
0.9384155618614312
0.7831147224166531
0.643210775995593
0.5200528072929178
0.4142689839077093
0.32575636933063323
0.2537177533206763
0.19674807658942176
0.1529663758237232
0.12018165105915454
0.09607489282789952
0.0783766622567814
0.06502097540817105
0.05426128723816462
0.044741481824606466
0.03552196911505801
0.026066752918486053
0.016201321851218503
0.006054848459681216
-0.003992251376045184
-0.013313067261072193
-0.020893744332750645
-0.02482756599719273
-0.021011396098238475
-0.000934591456442118
2.700061379824233e-08
6.267961986728958e-06
3.126778737819057e-05
0.00010322698185401966
0.0002751607722147952
0.0006365015189461875
0.0013256006972747418
0.002541467878425891
0.004552831118753594
0.007702660252155615
0.012406688177406585
0.01914513528443939
0.02844767315333421
0.040872513396459226
0.056981238744380235
0.07731150028949363
0.10234992863638556
0.13250754030904976
0.16809960158618378
0.209331408509855
0.2562908373026912
0.3089478961359933
0.36716093665633026
0.43068871161648736
0.4992071210235172
0.572329280707281
0.6496274653472948
0.7306555033754144
0.814970309206484
0.9021514037128625
0.9918174741277769
1.0836392414300164
1.1773481234828085
1.272740397063443
1.3696767662215694
1.4680774351532722
1.5679129589507304
1.6691913031289585
1.7719416800446146
1.8761958436880835
1.98196760974621
2.0892314211975234
2.1979007977408447
2.307807488569683
2.4186820935760545
2.530136832632935
2.641651034698641
2.752559800561704
2.862046180920699
2.9691371231174117
3.0727033932625147
3.1714636910004708
3.263993250665527
3.34873736348271
3.4240304445448175
3.488121471465697
3.53920678570967
3.575471302491728
3.595139040322745
3.5965334775819384
3.57814750973311
3.5387216937116994
3.477328060967157
3.3934551689861756
3.287088439079822
3.158778471273492
3.009689263237335
2.8416184166250393
2.6569827383585154
2.4587652096896617
2.2504229190434883
2.0357597641246983
1.8187718225243856
1.6034764971711468
1.3937382550755202
1.1931037642344788
1.0046577304107676
0.8309083352095793
0.6737085406240344
0.5342170538719517
0.4129004023086355
0.3095749839450482
0.22348480517379063
0.1534070210253821
0.09777412227259545
0.054799842054584394
0.02259657590134973
-0.0007244958930901419
-0.016974247978367236
-0.027825924702852427
-0.034770086352272224
-0.03907870421583148
-0.04177429981426683
-0.0436005447993954
-0.0449843368420608
-0.04595366368750165
-0.045903799836225195
-0.042928455211870616
-0.03203286207598719
-0.0013825358639754496
6.396629032859907e-08
1.2636390828824676e-05
5.989392823946217e-05
0.00018958778769011361
0.00048733046090048413
0.001091462596561667
0.002207581278621832
0.004120317017855729
0.0071999656570117055
0.011902017533037329
0.018758444261779233
0.028360654330924707
0.04133512199202604
0.058313643141775146
0.0799008321559436
0.10664176512776193
0.13899258852441132
0.17729649999408092
0.2217668637300268
0.27247845863908576
0.3293670826031146
0.39223704006108573
0.4607754842581711
0.5345722004614384
0.6131432054731101
0.6959564843111326
0.7824582565230448
0.872098326522421
0.9643532897333943
1.0587466094057438
1.1548648251583973
1.2523693887280156
1.3510038369843234
1.4505962042171405
1.5510567455606312
1.6523711933108707
1.7545898999882572
1.8578133374986292
1.962174520358369
2.067819000826963
2.174883141923803
2.2834714072147584
2.3936334109102813
2.5053414466744903
2.618469159550165
2.7327719468649785
2.8478695791334845
2.963231433081931
3.078164641794567
3.191805409639969
3.30311373018299
3.4108717988657524
3.5136865373015747
3.6099968402248774
3.6980864024339746
3.7761032467713562
3.8420873019521498
3.8940075007139714
3.9298098029998263
3.947477213232393
3.945102185911407
3.9209707614594267
3.8736563564619857
3.8021194293464777
3.7058074145798154
3.5847476076710856
3.4396243977257415
3.271831720275776
3.083492142156623
2.8774357756057207
2.6571352277149396
2.4265967333887684
2.1902119406551983
1.9525787985396956
1.7183029533253988
1.4917925700943606
1.2770595856214373
1.0775395292574488
0.8959408948517944
0.7341341013207987
0.5930892843483205
0.4728708026783668
0.3726933492541195
0.2910391419439957
0.22582800162635297
0.17462365397770807
0.13485272441538224
0.10401010418971583
0.07982708333899319
0.060386521028838167
0.04418024277917205
0.030114817457861133
0.01748043676639956
0.005903570573737981
-0.004688852526498401
-0.014047843747268344
-0.02142938614368561
-0.025071957219537547
-0.020961721795013884
-0.0009189731866709469
1.4150941826091816e-07
2.4362859563255264e-05
0.0001101508858605588
0.0003351982449232851
0.0008325155302314787
0.001808117575604623
0.0035562021163254016
0.006468695760183257
0.011036561861256493
0.017841239967005294
0.027535901505788718
0.040817608700839336
0.05839269950860861
0.08093859070919483
0.10906558224417581
0.1432821438609556
0.1839666397245286
0.231347624402415
0.2854938751336581
0.34631435521616316
0.4135674483185839
0.4868781402802911
0.5657613882027404
0.6496497043314361
0.7379229653949443
0.8299385920399883
0.9250604779118664
1.0226853369301876
1.1222654419219609
1.223327020404888
1.3254838374292899
1.4284457240291193
1.5320220031937535
1.636119927960172
1.7407383846839346
1.8459572349486968
1.9519227763378635
2.0588298972730947
2.1669015834284227
2.2763664995542676
2.3874354159342923
2.5002772675572427
2.6149956213567545
2.7316062792296525
2.8500166615238327
2.970007500659413
3.0912172354295167
3.2131293461576793
3.33506272689943
3.4561650749175254
3.575409213764029
3.691592278195307
3.8033377964223383
3.909100918421315
4.007177354163398
4.095716978565964
4.172743482378125
4.236181826117152
4.283895490932274
4.313735505184718
4.323602848632318
4.311525008628173
4.275746141396824
4.214828503293401
4.127760680535124
4.014065883478464
3.8739015064916833
3.7081396877084276
3.5184181622031923
3.3071516614890553
3.077496686026718
2.833266606612083
2.578799316924171
2.3187852765075254
2.0580687072871284
1.8014378808474536
1.5534211184647821
1.3181032002659125
1.0989729700030604
0.8988082473045061
0.7196001016333469
0.5625160889605298
0.42790136781940924
0.3153169700299647
0.22361465461611493
0.1510466010014875
0.09540531798886333
0.05418516352765756
0.024753125111657778
0.004514453229124512
-0.008940706175256271
-0.0177202578664371
-0.023547631547865534
-0.027710560493974284
-0.031024573523677393
-0.033767833983760716
-0.035485175624739726
-0.034433503745714196
-0.026195009592636237
-0.0011247416114847939
2.949545110006145e-07
4.50534422810244e-05
0.0001949544718657715
0.0005716595964875632
0.0013742537516807309
0.0028984168168855362
0.005549861837088371
0.009848440380658427
0.016420588445203558
0.025979407097860254
0.03929345985915056
0.057146979298106554
0.08029533061596952
0.1094201202833367
0.14508823643869403
0.18771845457976763
0.23755820537936667
0.2946718822027862
0.3589408558207025
0.4300743150424369
0.5076292613708905
0.5910374928098843
0.6796372070982051
0.7727068934565726
0.8694994008725088
0.9692744016642696
1.0713278492591163
1.1750174092744938
1.2797831891947782
1.385163385612076
1.4908047035242207
1.5964675834238597
1.7020264084974759
1.8074649681639146
1.9128675370223744
2.0184059993658057
2.124323514692326
2.2309152813354958
2.3385070121785785
2.4474317843756
2.5580059582369565
2.6705048724870952
2.785139008108129
2.9020312668955883
3.02119593251557
3.142519773907014
3.2657456203802386
3.390458596483583
3.5160750689225435
3.6418342475939225
3.7667923206096123
3.8898190117233353
4.009596547716803
4.124621226204647
4.233208082768227
4.333499555759896
4.423479501985092
4.500994367109627
4.563783677057474
4.609522186796282
4.63587588668255
4.640573516246273
4.621494191485506
4.576770188169822
4.504901891181728
4.404879564137052
4.276304160596731
4.119497224379153
3.935588408282865
3.7265686844818093
3.4952982739842593
3.245460895096588
2.9814601082413525
2.7082590185344078
2.431170788308067
2.1556134620860226
1.886847558601879
1.6297178699357913
1.3884213572891106
1.1663208209242775
0.9658194868151185
0.7883054806991949
0.6341681880080736
0.5028815307388543
0.39314291899850806
0.3030516524295391
0.23030741702377489
0.1724087566260776
0.126833304961867
0.09118602330746733
0.06330801068566902
0.041345517660760396
0.023785607661836714
0.009471623441337253
-0.002378969677943337
-0.012112311461776269
-0.019446557819927678
-0.022985246891909908
-0.01916588009548724
-0.0008298075585192166
5.830708273373432e-07
8.012305275964594e-05
0.0003327713625433362
0.0009421573076585188
0.0021957037076721538
0.004502801200753913
0.008403027637371838
0.014560821834420219
0.023745277137771602
0.036795982632791976
0.054577939896075026
0.07793013313549838
0.10761309778294723
0.14426076615313294
0.1883410791555594
0.24012856048846082
0.2996905205972631
0.36688704592681726
0.4413836342176784
0.522674382710769
0.6101130694497087
0.7029492694166758
0.8003667527961892
0.901521734713478
1.0055789928377825
1.1117443600235781
1.2192925710674059
1.3275898547511693
1.4361109943254393
1.5444508281299067
1.6523303358974155
1.7595975712181133
1.866223774999819
1.9722950559931967
2.0780000667245426
2.1836141460735266
2.289480447821279
2.3959886276235824
2.5035517149379536
2.612581844503492
2.7234655555041005
2.8365393767347076
2.9520663951505375
3.070214447544341
3.191036478486764
3.314453474004091
3.440240216587795
3.5680139252295753
3.697225661903738
3.8271542259646756
3.9569021468981305
4.085393352258514
4.211372158705764
4.333403431564589
4.44987409313409
4.558996626072075
4.658815786778916
4.747220358568912
4.821962349862615
4.880686465915529
4.920972822214826
4.940395588718664
4.936599440835841
4.907394277239028
4.8508666564554614
4.765503919889955
4.650324247456638
4.505003291945996
4.329986006937686
4.126571293111806
3.896957544160987
3.6442393041841283
3.3723490044165065
3.0859427460035174
2.7902346439727292
2.490789463342405
2.1932873004590654
1.903276297105322
1.625929686654806
1.3658222286587922
1.126739004373012
0.9115273532642086
0.7220008141211954
0.5589021093281996
0.42192979595409336
0.30982941070782916
0.22054439829059316
0.15141533224304135
0.09940931636577992
0.06135688374135794
0.03417285736750502
0.015041316352123045
0.0015528640044567554
-0.008205613114230884
-0.015591631343796208
-0.021334692772569858
-0.02536037763534274
-0.02633808788472879
-0.020657456364588194
-0.0008813726224893544
1.0987663583346406e-06
0.00013735079856210048
0.0005488770988984368
0.0015031711211180626
0.003400910979747085
0.0067893524742886355
0.012360880450526036
0.02093385635934251
0.033416288997741544
0.050755588020608464
0.07387975193697625
0.10363645126040132
0.14073649678163938
0.18570726048412559
0.23886002582387084
0.300273335877089
0.3697925189694558
0.44704396556989057
0.5314615686916594
0.622322079307201
0.7187859377488168
0.8199403321473813
0.9248416872393289
1.0325553801614644
1.1421911088449948
1.252932924314147
1.364063431061514
1.4749820374460147
1.5852174002954644
1.6944343692037027
1.8024358193888572
1.9091597931381303
2.0146723729786054
2.1191567046383946
2.222898588684028
2.3262690743637653
2.429704519801223
2.5336846265294315
2.6387090069896146
2.745272892207585
2.853842623513417
2.964831587214284
3.0785772362776047
3.195319792455265
3.3151831332740556
3.4381582422833104
3.564089443685374
3.6926634645161855
3.8234011842319484
3.9556517628123267
4.0885887081860774
4.2212073785570245
4.352323442462166
4.48057196426532
4.604407063904986
4.722102523770112
4.8317542711042245
4.931286315490576
5.018462402618914
5.09090626138342
5.146133746906109
5.181600273931273
5.194766547441441
5.183184605550228
5.14460451857633
5.0770997430352445
4.979206225105904
4.850067131837751
4.689571947345001
4.498476119668035
4.27848607665686
4.032294833836344
3.763556043249074
3.4767893306972004
3.177216839623443
2.8705392071402045
2.5626674181156557
2.259433530563164
1.9663066744266882
1.6881400981704129
1.4289703926240418
1.1918823844618904
0.9789443342602581
0.7912099637848425
0.6287779961700684
0.49089693421415487
0.37610234894583444
0.2823749652082174
0.2073091860584786
0.14828270704922983
0.10261854493277552
0.06773178429981498
0.04125570813931931
0.02114726511516743
0.005782607650300766
-0.005925676906732933
-0.014320434020964118
-0.018575930283843047
-0.01589556711553726
-0.0006805877943739867
1.981979253663223e-06
0.00022743848163963402
0.0008763987440119043
0.0023253625773778206
0.005114154548380243
0.009949482372019034
0.017688760469065958
0.02930293830106437
0.04582161633592001
0.06826656498648376
0.09758138141534337
0.13456524790819102
0.17981772798252493
0.2336996095489884
0.29631243730912304
0.3674970157615217
0.4468491606938266
0.5337495443118612
0.6274036896887594
0.7268879799898571
0.831197835369958
0.9392948177509746
1.0501501919892682
1.1627832657777313
1.2762935509911035
1.3898863766533416
1.5028920145296092
1.6147786565164615
1.7251597309644067
1.833796094911532
1.9405936254780698
2.0455966881844816
2.1489779086066383
2.251024635041904
2.3521224645343537
2.452736216452463
2.5533887746660713
2.6546382745272927
2.757054174528621
2.861192813215701
2.967573097828347
3.0766529912009792
3.188807448501888
3.304308399030955
3.423307267678116
3.5458203871160965
3.671717471402516
3.8007131154695726
3.932361069193746
4.066050830522215
4.201005934983619
4.336283217473371
4.470772316323255
4.603194807486194
4.732102620641203
4.855875810808056
4.972720333516227
5.08066717045921
5.177574919000542
5.261138704189786
5.328908876844065
5.378323283701935
5.406756786627385
5.4115910352394385
5.3903061758285995
5.34059420107657
5.260491103670229
5.148522097740385
5.003851221969207
4.8264240143816615
4.617090052057971
4.377691351125311
4.111103218157271
3.8212163126632825
3.51285245414913
3.191611941928742
2.863656498686928
2.535438815941689
2.2133962678145505
1.9036317209652356
1.6116075609860996
1.3418793466727552
1.097892570750401
0.8818600585005678
0.6947293100419358
0.5362397126450499
0.40506031239359586
0.2989909807844017
0.2152043505472099
0.15050349488961692
0.10157127097199606
0.06519147975458775
0.038429285859330885