# vtk DataFile Version 4.1 
COMMENT
ASCII
DATASET STRUCTURED_POINTS 
DIMENSIONS 100 100 1 
ORIGIN 0 0 0
SPACING 0.12693303650867893 0.12693303650867893 0 
POINT_DATA 10000
SCALARS U double 1
LOOKUP_TABLE default
0.0
0.0
0.0
0.0
0.0
0.0
0.0
0.0
0.0
0.0
0.0
0.0
0.0
0.0
0.0
0.0
0.0
0.0
0.0
0.0
0.0
0.0
0.0
0.0
0.0
0.0
0.0
0.0
0.0
0.0
0.0
0.0
0.0
0.0
0.0
0.0
0.0
0.0
0.0
0.0
0.0
0.0
0.0
0.0
0.0
0.0
0.0
0.0
0.0
0.0
0.0
0.0
0.0
0.0
0.0
0.0
0.0
0.0
0.0
0.0
0.0
0.0
0.0
0.0
0.0
0.0
0.0
0.0
0.0
0.0
0.0
0.0
0.0
0.0
0.0
0.0
0.0
0.0
0.0
0.0
0.0
0.0
0.0
0.0
0.0
0.0
0.0
0.0
0.0
0.0
0.0
0.0
0.0
0.0
0.0
0.0
0.0
0.0
0.0
0.0
7.212358102967732e-13
-3.537556037353935e-10
-3.948082989207584e-09
-2.2536947399670708e-08
-9.232901905074983e-08
-3.0626142950684544e-07
-8.731264946642522e-07
-2.215509591613238e-06
-5.118567141132727e-06
-1.0939212216965624e-05
-2.1879850484773256e-05
-4.1322550264300856e-05
-7.420920620536274e-05
-0.00012744220382365887
-0.00021027000755309447
-0.00033461472772125663
-0.0005152955476696889
-0.000770103833677667
-0.0011196930040740939
-0.0015872582345020667
-0.0021979965949255886
-0.0029783555631468853
-0.003955095157332967
-0.00515420437162931
-0.006599724690408596
-0.0083125411776068
-0.010309204517991883
-0.012600845500558986
-0.015192237320979938
-0.01808105162438937
-0.021257342495089156
-0.024703279765181278
-0.028393140130908334
-0.03229355254364269
-0.03636398387299627
-0.04055744237061598
-0.044821370205761074
-0.04909869229851062
-0.05332898667511901
-0.05744974132246753
-0.0613976636601401
-0.06511001088350617
-0.068525912168615
-0.071587656712918
-0.07424192451330468
-0.07644093942335889
-0.07814352623377344
-0.07931605521773535
-0.07993325879793053
-0.07997890582748593
-0.07944631960791747
-0.07833872641280226
-0.07666942217111497
-0.07446174626042792
-0.07174885311692247
-0.0685732744521532
-0.06498626693672462
-0.0610469417903534
-0.056821173385781645
-0.052380283711471645
-0.04779949916373409
-0.04315617768364121
-0.03852781101185057
-0.03398982279351821
-0.02961321173019075
-0.02546213050254358
-0.021591541429697325
-0.01804513833100574
-0.014853755168964592
-0.012034478689146807
-0.009590632039476013
-0.00751269816247385
-0.005780119969790905
-0.004363777570358481
-0.003228836574023442
-0.00233761606120322
-0.0016521536542776123
-0.0011362386451486265
-0.0007568125168884501
-0.0004847607047148218
-0.00029520723553204034
-0.0001674596334947536
-8.474054241616295e-05
-3.3804936960639904e-05
-4.50096049421416e-06
1.0695445610784536e-05
1.715263168803342e-05
1.8541740136996597e-05
1.7258389336116992e-05
1.4786188682779799e-05
1.198885841469595e-05
9.32904382403798e-06
7.021922198623599e-06
5.137344749349348e-06
3.665065872502594e-06
2.5550458445553656e-06
1.7405767306411328e-06
1.1456843437128144e-06
6.618256091143245e-07
2.8873422233427883e-08
1.4759357065666939e-12
-1.2287484772344415e-09
-1.106462604322233e-08
-5.568169020758325e-08
-2.0780838389436855e-07
-6.387097236541368e-07
-1.7048655491013046e-06
-4.07888667938349e-06
-8.930565688286122e-06
-1.815742603223086e-05
-3.465527358876798e-05
-6.260931462447415e-05
-0.00010777711009508093
-0.00017772784645049043
-0.0002819997078510513
-0.0004321395038327676
-0.0006415962713425184
-0.0009254525842563472
-0.0012999922818891225
-0.0017821193222638217
-0.0023886574083136695
-0.0031355720766127644
-0.0040371647170922495
-0.00510529079422144
-0.0063486523360069295
-0.007772208130081896
-0.009376735058830538
-0.011158561924672154
-0.013109484332868
-0.015216856972576867
-0.01746384898865207
-0.01982983977553463
-0.022290926825741703
-0.024820514293568227
-0.027389950497859476
-0.029969184308458328
-0.03252741375070105
-0.03503370469074006
-0.03745756261566002
-0.03976944583563376
-0.041941213529585165
-0.04394650663914713
-0.04576106348375078
-0.047362974995799154
-0.04873288659627472
-0.0498541549347861
-0.0507129680297577
-0.051298436824066596
-0.051602664916563866
-0.051620801388983756
-0.05135107944037667
-0.05079484127996081
-0.04995654783007685
-0.0488437707520668
-0.047467164632501675
-0.04584041920549106
-0.043980195192708224
-0.04190605197960675
-0.03964037924057156
-0.03720834513967634
-0.03463786766954148
-0.031959600293970714
-0.029206897599662194
-0.026415694224686384
-0.023624199055743512
-0.020872289406874103
-0.01820050131577524
-0.01564856343307025
-0.013253514324784235
-0.01104756212478646
-0.009055961338639375
-0.007295254981008517
-0.005772225825715689
-0.004483802524507393
-0.0034179894011996683
-0.0025556781274956018
-0.0018730176631091744
-0.0013439224702561164
-0.0009423162337837315
-0.0006438269316138858
-0.00042682198864131684
-0.00027283789703711863
-0.0001665669090496474
-9.559385470251389e-05
-5.004142591069433e-05
-2.2216051924573015e-05
-6.284405600702769e-06
2.025446580057227e-06
5.7114040577149965e-06
6.775912060126479e-06
6.485468349022391e-06
5.595281146848093e-06
4.5272296599521825e-06
3.4984534828737446e-06
2.6066171198689488e-06
1.8824750866196711e-06
1.320007251117633e-06
8.892265797331344e-07
5.221372186902826e-07
2.3390691910866606e-08
1.555763766735255e-12
-3.992788449764494e-09
-3.164005800530704e-08
-1.4719626470422372e-07
-5.188067147652849e-07
-1.5242594665188298e-06
-3.920161553640823e-06
-9.088534474252342e-06
-1.9367524772257762e-05
-3.846153095385902e-05
-7.191184741609709e-05
-0.0001275940553624895
-0.00021619542221964117
-0.0003516169814848835
-0.000551242618881013
-0.0008360222649949283
-0.0012303279211696068
-0.0017615583905345512
-0.0024594891262450054
-0.003355385026001637
-0.004480913804531333
-0.005866913665921641
-0.007542079923981944
-0.009531640291520501
-0.011856087833947326
-0.01453003473810824
-0.017561240201184183
-0.020949853244425786
-0.024687897484733577
-0.028759011112766943
-0.0331384425575935
-0.03779329130648289
-0.042682974539482985
-0.047759893805751526
-0.05297027186233877
-0.05825512780052053
-0.06355135837715788
-0.06879289467189374
-0.0739119054166099
-0.07884002122216918
-0.08350955712895886
-0.08785471415116107
-0.09181274354039694
-0.09532506018076
-0.09833829370363135
-0.10080526746896276
-0.10268589641604806
-0.10394799487586598
-0.10456798471161885
-0.10453149259418965
-0.10383382285607702
-0.10248028932743418
-0.10048638613052994
-0.09787777413318051
-0.09469005751236385
-0.09096832491168837
-0.0867664335611704
-0.08214602409307396
-0.07717526980301898
-0.07192738671693623
-0.06647895789459976
-0.06090815210700389
-0.055292936026162275
-0.04970938193714035
-0.04423015309750968
-0.038923205217733424
-0.0338506830728153
-0.029067933752958665
-0.024622526602321355
-0.020553186588676515
-0.016888621819885003
-0.013646344185555732
-0.010831707851789314
-0.008437472347829695
-0.006444188876444487
-0.004821590815554628
-0.0035309639610161805
-0.002528239470447689
-0.0017673710489577994
-0.0012034920800601577
-0.0007954208433543783
-0.00050726370458402
-0.0003090898651708188
-0.0001768411422649401
-9.1743615192227e-05
-3.9493026107640324e-05
-9.418853872204963e-06
6.2617494392129365e-06
1.3068605715825513e-05
1.477482539874949e-05
1.3838700216692898e-05
1.1766740139064937e-05
9.412052869393682e-06
7.207300491240362e-06
5.333917789839976e-06
3.834910755424672e-06
2.682022004841659e-06
1.8038892046177994e-06
1.0570532136502086e-06
4.6404655416609625e-08
-4.856173915068101e-12
-1.1727995985622433e-08
-8.33479686012533e-08
-3.599757097660611e-07
-1.197227213397819e-06
-3.3508356402860954e-06
-8.2610324973163e-06
-1.8440942872870918e-05
-3.796277666379889e-05
-7.301607244892274e-05
-0.00013249185916553544
-0.00022852923142690064
-0.0003769502142935117
-0.0005975076506949899
-0.0009138803028451216
-0.0013533686985961202
-0.0019462720732258266
-0.002724957462599066
-0.003722662490505417
-0.004972099759992118
-0.006503949909499036
-0.00834534043133987
-0.010518407717366082
-0.013039031195218336
-0.015915812541159178
-0.019149352121781232
-0.022731851584182134
-0.02664704832767953
-0.030870466515732428
-0.03536995184626162
-0.040106444406675504
-0.045034935927371136
-0.050105554447027294
-0.05526472027149584
-0.06045632136086634
-0.06562286301756083
-0.07070655506677402
-0.07565030878812419
-0.0803986249696844
-0.08489836306130129
-0.08909938910954676
-0.09295510671413466
-0.09642288053148947
-0.09946436583809107
-0.1020457603940717
-0.10413799639512268
-0.10571689076025456
-0.10676327145756657
-0.10726309607488772
-0.10720757640799815
-0.10659331942247584
-0.10542249044668008
-0.10370299873574591
-0.1014486984852013
-0.09867958995611288
-0.0954219958620069
-0.09170867830243563
-0.08757885273630772
-0.08307804997622664
-0.07825777775820257
-0.07317494288699666
-0.06789101493142566
-0.062470942030866214
-0.05698186384521765
-0.05149169727114124
-0.04606768610242601
-0.04077499664065626
-0.03567540444771359
-0.030826061492807862
-0.026278278869452
-0.022076236432937796
-0.01825556166909693
-0.01484181258367647
-0.011849032368485004
-0.009278669273721547
-0.007119214111954477
-0.005346854496493813
-0.003927272035645702
-0.002818458214042389
-0.001974176418715653
-0.0013475383257265292
-0.0008941495154927186
-0.0005744137377676138
-0.00035481475891225347
-0.00020823603089416563
-0.00011355472914273719
-5.481755955357871e-05
-2.0276779029574265e-05
-1.4757053826835346e-06
7.527223152082268e-06
1.0781793003723253e-05
1.0939621258712273e-05
9.646845731491316e-06
7.855864681237317e-06
6.066428830820804e-06
4.502203593243391e-06
3.2287724795262215e-06
2.215312941635454e-06
1.3155189261117554e-06
5.798025127584609e-08
-3.843697772581078e-11
-3.178473344404509e-08
-2.0633919561526893e-07
-8.353143328587389e-07
-2.638725419767664e-06
-7.072363367065848e-06
-1.6791422346130947e-05
-3.6248716688565756e-05
-7.240066069721368e-05
-0.00013546695842375965
-0.00023966596370869758
-0.0004038320911317272
-0.0006518183206642166
-0.0010125973685435894
-0.0015199985779569822
-0.0022120508067260333
-0.003129939772502512
-0.004316626076668898
-0.005815202472970879
-0.0076670920683807944
-0.009910200895722782
-0.012577138312679146
-0.015693608171917457
-0.019277055043870055
-0.02333562596472037
-0.02786748235275817
-0.03286047170003902
-0.03829214661155143
-0.044130101189303654
-0.05033258234183344
-0.056849326369230506
-0.06362256864282609
-0.07058817554305949
-0.07767685204985324
-0.08481538448923155
-0.09192788500864278
-0.09893701161817745
-0.10576514451869017
-0.11233550555143372
-0.11857321272598842
-0.12440626582952506
-0.1297664621068391
-0.13459024300844596
-0.13881947414928045
-0.14240216102944345
-0.1452931028610984
-0.1474544861262098
-0.14885641834395916
-0.14947740102317342
-0.1493047389712482
-0.14833488107787574
-0.1465736854365121
-0.1440365992493945
-0.14074874140886237
-0.13674487296450424
-0.13206923787096725
-0.12677525351389232
-0.12092502775685382
-0.11458867724263741
-0.1078434216211399
-0.10077243218718847
-0.093463423543891
-0.08600699561370513
-0.07849476133585818
-0.07101733028105768
-0.0636622533241386
-0.05651205738372027
-0.04964249947643469
-0.04312113704251465
-0.03700624779094936
-0.03134605268475585
-0.026178128856404217
-0.02152887832781542
-0.01741296601446602
-0.013832753636250963
-0.01077789946281957
-0.008225407582747658
-0.006140433508047258
-0.004478052109533522
-0.0031859847308278915
-0.002208029659223008
-0.001487734194847667
-0.0009717648498500913
-0.0006125052222639099
-0.00036960941716506645
-0.0002104880653919581
-0.00010991882671626741
-4.909364413366552e-05
-1.442585937247461e-05
3.6315384218972847e-06
1.1611620984032316e-05
1.3854509411181145e-05
1.3136308237567351e-05
1.1142883465249485e-05
8.824722295217497e-06
6.658658313487868e-06
4.8311055431742555e-06
3.3431402166985515e-06
1.995179527826975e-06
8.736800154712948e-08
-1.602853632582868e-10
-8.029470654823403e-08
-4.820441517017228e-07
-1.8407767681463762e-06
-5.544563520747378e-06
-1.4267156977937592e-05
-3.2677266700830155e-05
-6.829572998490337e-05
-0.00013243528463995757
-0.00024112397583445614
-0.000415890342025088
-0.0006842821831930648
-0.0010800035782182352
-0.0016425858804326279
-0.002416553314872593
-0.0034500958243005053
-0.004793313341727822
-0.0064961396115810624
-0.008606084640200618
-0.011165949813831538
-0.014211668210770283
-0.017770406435575682
-0.02185903683492429
-0.026483054514290914
-0.031635976600095185
-0.03729922565656107
-0.043442468172517776
-0.050024354618069714
-0.05699359070076622
-0.06429026015435588
-0.0718473169786425
-0.07959216835206642
-0.08744827706003869
-0.09533672278672135
-0.10317767368278417
-0.11089173212892231
-0.11840113069683184
-0.1256307653539026
-0.13250906258737438
-0.13896868515667515
-0.14494708758876057
-0.15038693738545508
-0.15523642135235985
-0.15944945865184496
-0.16298584329292048
-0.16581133894073227
-0.16789774826232642
-0.1692229775804972
-0.16977111539082396
-0.16953254026841974
-0.16850406977398336
-0.16668915706924484
-0.16409813598402395
-0.16074850819559014
-0.15666525801568176
-0.1518811711711673
-0.14643712419678015
-0.14038230111253566
-0.13377428468575314
-0.12667896192359399
-0.11917017920110357
-0.11132908395303087
-0.1032431000459002
-0.09500450569454866
-0.08670861779938531
-0.07845163363630127
-0.0703282340417089
-0.06242910034676391
-0.054838525302339916
-0.0476322918951922
-0.040875946769703915
-0.034623514625380776
-0.0289166105572527
-0.023783843867942536
-0.019240401859562807
-0.015287768339449295
-0.01191365000936181
-0.009092304706547486
-0.006785525602891841
-0.004944487406569138
-0.003512498693530671
-0.0024284743785330277
-0.0016307258985436208
-0.0010605476276463472
-0.0006651045144163843
-0.00039928908899979814
-0.00022645535195571704
-0.0001181691545513906
-5.32694590991851e-05
-1.6581641245421087e-05
2.4239407367591835e-06
1.0835438974746886e-05
1.327852537809953e-05
1.2663495192196293e-05
1.0734358217729298e-05
8.463625766112562e-06
6.326990082388401e-06
4.467737190998728e-06
2.697064416916663e-06
1.1791615425657512e-07
-5.288090539307113e-10
-1.9056674949637703e-07
-1.0679428549194701e-06
-3.867415299769764e-06
-1.1147010766569724e-05
-2.7610521655185362e-05
-6.11333340005213e-05
-0.00012391722322199102
-0.00023365378812910173
-0.00041454321747380103
-0.0006980037991915581
-0.001122922126836819
-0.0017353332437907575
-0.0025874780747629513
-0.0037362531534755397
-0.005241134316328405
-0.007161711982197933
-0.009555013676999662
-0.012472805846844084
-0.015959061611048885
-0.02004775691100896
-0.02476111962862031
-0.030108410803107808
-0.03608527013552279
-0.04267361471557623
-0.049842044113066336
-0.05754667882830052
-0.0657323432584982
-0.07433399822637572
-0.08327833026505384
-0.09248541329319138
-0.10187037092558987
-0.11134498244438774
-0.12081919070037488
-0.1302024846136952
-0.1394051416076411
-0.14833932573708464
-0.15692004528987905
-0.1650659793198607
-0.17270018615758526
-0.1797507087804245
-0.18615109238564703
-0.19184082897025903
-0.1967657425144331
-0.2008783267710018
-0.20413804589816303
-0.20651160638727495
-0.20797320702006966
-0.2085047719674947
-0.20809617058733718
-0.2067454259092089
-0.20445891208512967
-0.2012515390633981
-0.19714692021597013
-0.19217751540998815
-0.18638473787710824
-0.1798190080727129
-0.172539731512857
-0.16461517048971958
-0.15612217203418344
-0.1471457073759413
-0.1377781729083669
-0.1281184015217172
-0.11827033910895415
-0.10834135742423993
-0.09844020398394432
-0.08867463270566836
-0.07914881153105542
-0.06996065577952254
-0.061199273827049545
-0.05294271892462231
-0.04525620674428811
-0.03819088422123823
-0.03178313990622273
-0.026054361984580623
-0.021011012980780685
-0.01664492181083165
-0.012933787566797122
-0.009842006137482597
-0.007322011479513977
-0.00531631493960445
-0.003760309050193668
-0.002585705811894941
-0.001724273468132557
-0.0011114016885132674
-0.00068901953076148
-0.0004075196016365078
-0.00022655924259835719
-0.00011483916101254884
-4.91296433820466e-05
-1.288453677147465e-05
5.244109449689395e-06
1.2768055958302013e-05
1.448661383186453e-05
1.3346219229609544e-05
1.1062902884510548e-05
8.550384665931436e-06
6.175499026666815e-06
3.7759778726295324e-06
1.6440085370058666e-07
-1.5155833423546013e-09
-4.2746638833484094e-07
-2.2524167267298728e-06
-7.768907042270492e-06
-2.149090373946359e-05
-5.135328722397235e-05
-0.00011010499981665003
-0.00021675142787196616
-0.0003978543767639526
-0.0006884779246521986
-0.0011325829559677963
-0.0017827215860982053
-0.0026989573446923824
-0.003947025331140754
-0.005595834109443584
-0.007714484511389526
-0.010369029934965735
-0.013619223188297237
-0.01751548650090254
-0.02209630830364764
-0.027386219896650334
-0.033394445525369944
-0.04011425875106791
-0.04752302304330126
-0.05558284994025745
-0.0642417764283696
-0.07343534489157859
-0.08308846299657187
-0.09311742508437665
-0.10343198837555825
-0.11393741383212312
-0.12453640037074407
-0.13513086025768006
-0.14562350144228592
-0.15591919834382223
-0.16592614570537326
-0.17555680045145491
-0.18472862418004668
-0.19336464429776812
-0.20139385526112885
-0.2087514833248964
-0.21537913899913388
-0.22122488140167365
-0.22624321811601375
-0.2303950632067097
-0.23364767481692228
-0.23597459232418388
-0.23735559135325965
-0.23777667298363295
-0.23723010114754514
-0.23571449936447067
-0.23323501444892564
-0.22980355050135
-0.22543907119621434
-0.22016796200061178
-0.21402443643730154
-0.20705096189508337
-0.19929867097216972
-0.1908277142799692
-0.18170750062314894
-0.1720167613712671
-0.16184336886473719
-0.1512838355259777
-0.14044242319707778
-0.12942980384634933
-0.11836123611779177
-0.10735425950163455
-0.09652595926163086
-0.08598991669540858
-0.07585302136862744
-0.0662123699396769
-0.0571524931770588
-0.04874312573217648
-0.041037660415977145
-0.03407232496564222
-0.027866015095609258
-0.022420649921411778
-0.01772191216225298
-0.01374029837389674
-0.010432504604835439
-0.0077432577741880435
-0.005607719398410325
-0.003954508874625598
-0.002709234823627006
-0.0017982422779836572
-0.0011521551048628556
-0.0007087746644274878
-0.0004150017161715178
-0.00022764409423760954
-0.00011319053241910391
-4.6802187617408714e-05
-1.0854752931459173e-05
6.649151387150416e-06
1.3557704119368997e-05
1.4803054139897317e-05
1.3347362827446569e-05
1.0854453014222361e-05
8.101203287253602e-06
5.0460966584153005e-06
2.190427821923461e-07
-3.923104455977199e-09
-9.106572096957803e-07
-4.537957666796354e-06
-1.4961896958401936e-05
-3.982483949202467e-05
-9.198450070386992e-05
-0.0001912801934192627
-0.00036617953519123866
-0.0006550368075942202
-0.0011067059093373282
-0.001780308864101024
-0.0027440555092511716
-0.004073124422326434
-0.0058467294519214475
-0.008144591944261799
-0.011043102358013574
-0.014611479751944042
-0.018908223997520353
-0.02397810977021992
-0.029849903478266424
-0.036534905846175254
-0.04402634482930549
-0.05229957472208913
-0.06131298362898087
-0.07100947569265832
-0.08131837667564201
-0.09215760964652522
-0.10343599830904265
-0.1150555750571699
-0.12691379532559796
-0.13890558589966248
-0.15092517994372387
-0.1628677137966831
-0.17463057902396728
-0.186114537407192
-0.19722461658668627
-0.20787081037094554
-0.217968610902699
-0.2274394006089119
-0.23621073083578953
-0.24421651188788723
-0.25139713636533023
-0.25769955463132527
-0.2630773182465905
-0.26749060448739276
-0.2709062327485864
-0.27329768178326996
-0.2746451153493017
-0.27493542287035755
-0.2741622810753061
-0.27232624210198403
-0.26943485303217235
-0.26550281099925005
-0.2605521565614938
-0.25461250560679966
-0.24772131628385383
-0.2399241820130312
-0.2312751342931968
-0.2218369297482755
-0.2116812848852345
-0.20088900996643602
-0.189549981294171
-0.1777628806622133
-0.1656346239512102
-0.15327940065399284
-0.1408172558276282
-0.12837216895694786
-0.11606962299485707
-0.10403371158191435
-0.09238389913127149
-0.08123161748587024
-0.07067693913711505
-0.06080559281414088
-0.05168656801174189
-0.04337048657922431
-0.03588881383168109
-0.029253866991732005
-0.02345949165154044
-0.01848224756874109
-0.014282981863938685
-0.010808749076059452
-0.007995117908702904
-0.0057689335102059465
-0.0040515517802699255
-0.002762436760864628
-0.001822860305898237
-0.001159330492996165
-0.0007063559793882452
-0.00040824530055018116
-0.00021981590130700323
-0.00010608894221380935
-4.120917983155316e-05
-6.912025912409061e-06
9.145930678661963e-06
1.4948320971735667e-05
1.5426059224366738e-05
1.3448187545702972e-05
1.0464284425945897e-05
6.670045127530034e-06
2.8844811545151135e-07
-9.365165033737e-09
-1.8499296705335076e-06
-8.759327574124734e-06
-2.7691706317809866e-05
-7.108203739561768e-05
-0.00015897147515502608
-0.00032107074645034773
-0.0005984190765046767
-0.0010443044042837753
-0.0017241769871472387
-0.002714406269428951
-0.004099877822047076
-0.005970576166514468
-0.008417424888060774
-0.011527738849586633
-0.015380675319713205
-0.020043052070130043
-0.025565839745958996
-0.03198154696659676
-0.0393026153778504
-0.04752084283943466
-0.05660776752128201
-0.06651588113883702
-0.07718049885706611
-0.08852209586160925
-0.1004489229233663
-0.11285973065187724
-0.1256464592460075
-0.13869678243085015
-0.15189642678036933
-0.165131217719622
-0.1782888292540319
-0.191260234963014
-0.2039408728925188
-0.2162315471150773
-0.22803909465873745
-0.23927684914383685
-0.24986493271681534
-0.25973040654971075
-0.26880730795631924
-0.27703659957424526
-0.2843660534340755
-0.2907500903048587
-0.29614959258202317
-0.30053170720095906
-0.3038696535910589
-0.3061425504682687
-0.3073352742139477
-0.3074383606044653
-0.30644796062881663
-0.3043658599370364
-0.3011995699591988
-0.2969624967583354
-0.29167419103686554
-0.2853606791820591
-0.27805487056816136
-0.269797030289215
-0.26063529887776443
-0.250626231273527
-0.23983531642840508
-0.22833742683227248
-0.21621713465644135
-0.2035688193495417
-0.19049648214697903
-0.1771131784333706
-0.1635399821628484
-0.14990441091318102
-0.13633826883353678
-0.1229749098855251
-0.10994598499228396
-0.09737780937792183
-0.0853875603506907
-0.07407957561382128
-0.06354204992512902
-0.05384440869065784
-0.04503556613201954
-0.03714316398342238
-0.030173761304301307
-0.024113842886162203
-0.01893146409616468
-0.014578365490874559
-0.010992454942122741
-0.008100628512434975
-0.00582193751786442
-0.0040710780374251946
-0.0027620838681652322
-0.0018119827082306854
-0.001144084799863936
-0.0006905619570596055
-0.0003940600925128592
-0.00020824785122260396
-9.738676236091769e-05
-3.51577377289291e-05
-3.055741503890277e-06
1.1339450611435741e-05
1.5972339997258797e-05
1.5639401211901447e-05
1.2918540027474682e-05
8.490312501603772e-06
3.6589217691673037e-07
-2.0887773487400286e-08
-3.5958228372114504e-06
-1.6241660578571124e-05
-4.9364324449228806e-05
-0.00012243930938880048
-0.00026555450968329843
-0.0005215761867581465
-0.000947495884621319
-0.0016145978501672959
-0.0026072299850777676
-0.004020148409514533
-0.005954599686222661
-0.008513470349336688
-0.011795944257795616
-0.0158921513011018
-0.020878266756810572
-0.026812441087287482
-0.033731824173387576
-0.041650817239220844
-0.05056055956756009
-0.060429550495086984
-0.07120522917260041
-0.08281628837685599
-0.09517548259204908
-0.10818269958464315
-0.1217280919383001
-0.13569510328259812
-0.14996326669510102
-0.16441069473974326
-0.17891621814711367
-0.1933611610970589
-0.20763076459372357
-0.221615285683418
-0.23521081007022365
-0.24831982020232213
-0.2608515614172076
-0.2727222464734267
-0.2838551348266067
-0.29418051818512997
-0.3036356388449896
-0.3121645624942555
-0.3197180228694795
-0.3262532519858078
-0.33173380670513847
-0.33612940014826737
-0.33941574485783965
-0.3415744136192662
-0.34259272337513696
-0.3424636476425551
-0.3411857631639223
-0.3387632370660253
-0.335205861407301
-0.3305291424446758
-0.32475445197192715
-0.3179092473257328
-0.31002736471622366
-0.3011493869696803
-0.2913230811313475
-0.2806038933013685
-0.2690554773734337
-0.2567502211098094
-0.24376971772987438
-0.23020511496196153
-0.21615725799381008
-0.20173653032321845
-0.18706229018623086
-0.17226180357448295
-0.1574685915794304
-0.1428201431917626
-0.12845499649112488
-0.11450926014971906
-0.10111272754101513
-0.08838481610780302
-0.07643062858852062
-0.06533746179906601
-0.05517206805813591
-0.04597889953878054
-0.03777944788716291
-0.030572657127044912
-0.024336272658753648
-0.019028924382492464
-0.0145927408540587
-0.010956341171757495
-0.008038116913803763
-0.005749755800839629
-0.00399994336722451
-0.002698109474464689
-0.001757994516988645
-0.0011007439004077958
-0.0006572405438303977
-0.0003694684990887736
-0.0001908467496428377
-8.563621602982762e-05
-2.7655413913153195e-05
1.392559738347075e-06
1.3682188857257004e-05
1.6864687237867383e-05
1.5283330298467016e-05
1.048251223173144e-05
4.5004698830090635e-07
-4.391949238495425e-08
-6.707929096874331e-06
-2.8998743742583002e-05
-8.493120068341717e-05
-0.00020390682826097715
-0.00042948437888586956
-0.0008213028891425786
-0.0014556509517045337
-0.002424367830779034
-0.00383199723508984
-0.005791366183020975
-0.008417980601453136
-0.011823778776965997
-0.016110844286138848
-0.021365651562355495
-0.027654315684658013
-0.035019169018419075
-0.043476819832640234
-0.05301768812994104
-0.06360688127109418
-0.07518617792820181
-0.08767683679177632
-0.10098293311053085
-0.11499494405905082
-0.12959334354254673
-0.14465201864716037
-0.16004137503436175
-0.17563105064964718
-0.19129220188772542
-0.20689936162966238
-0.22233189384351623
-0.2374750854389143
-0.2522209242477062
-0.26646861415645984
-0.2801248763499688
-0.29310408095911905
-0.30532824746432463
-0.316726945974333
-0.32723712564502444
-0.3368028914126177
-0.34537524606167763
-0.352911811445659
-0.35937654034113964
-0.36473942880720556
-0.3689762378804649
-0.3720682328114716
-0.37400194770772094
-0.3747689832868811
-0.3743658453830063
-0.37279383183039994
-0.3700589753258674
-0.36617204978525725
-0.36114864748350983
-0.3550093337709764
-0.3477798851970284
-0.33949161516697773
-0.33018178844581925
-0.3198941214679394
-0.30867935905419086
-0.29659590936534896
-0.2837105074863897
-0.2700988640002953
-0.2558462388054788
-0.24104786341800488
-0.22580911898875616
-0.21024536496592056
-0.19448130818964043
-0.17864980816649867
-0.16289003531368518
-0.1473449382868566
-0.13215803534789122
-0.11746962087156526
-0.10341256442486517
-0.0901079636876459
-0.07766097651499419
-0.06615718311364385
-0.05565980245669834
-0.04620800441314394
-0.03781643278744795
-0.03047591173166175
-0.024155183915064514
-0.018803454080385577
-0.014353499527402488
-0.010725148701155126
-0.0078289888522804
-0.005570205583014705
-0.0038524548978949302
-0.0025816217134555044
-0.0016692540821554866
-0.001035420345916877
-0.0006107517269342375
-0.00033751662933386356
-0.00016970697458651462
-7.226218827557127e-05
-1.967115706594983e-05
5.7488102007965155e-06
1.5588417744236996e-05
1.678202206281913e-05
1.2302571316660429e-05
5.263163375363323e-07
-8.763817419298819e-08
-1.2041547355359281e-05
-4.996506746202126e-05
-0.00014129933944916458
-0.00032888334367400226
-0.0006735890801741676
-0.001255490032240268
-0.0021730646611955425
-0.003540272206104077
-0.00548166288395341
-0.008125975752021975
-0.011598881710692401
-0.016015617547216185
-0.021474227507876528
-0.028050002040006537
-0.035791513472071226
-0.04471843437021374
-0.054821121259570685
-0.06606178030147833
-0.07837691690716307
-0.09168071168512955
-0.1058689553986417
-0.12082320502607531
-0.13641487844298664
-0.15250907375473208
-0.16896796995297161
-0.18565373029169432
-0.2024308836070603
-0.21916819953619668
-0.23574010118197056
-0.2520276746460624
-0.26791934123907646
-0.2833112575708385
-0.29810750350944065
-0.3122201102106034
-0.32556897164341597
-0.3380816743931906
-0.3496932727077683
-0.3603460291324195
-0.369989135762649
-0.3785784270802911
-0.38607609237796897
-0.39245039373196106
-0.3976753941638204
-0.4017306998685933
-0.4046012200482632
-0.40627694787576274
-0.4067527663637155
-0.406028283383895
-0.4041077007525088
-0.4009997231357892
-0.3967175134948908
-0.3912787027968857
-0.3847054626309175
-0.37702464997020235
-0.3682680333041528
-0.3584726083230724
-0.34768100877102426
-0.3359420134297292
-0.3233111428979339
-0.3098513294289193
-0.29563362936676624
-0.2807379308748366
-0.26525359046765196
-0.24927991189176588
-0.2329263625753575
-0.21631240948157482
-0.19956685178919653
-0.18282653678761998
-0.16623437184369255
-0.1499365921660179
-0.13407931170930507
-0.1188044692762454
-0.10424537482478763
-0.09052214784270443
-0.07773740211832045
-0.06597255086110591
-0.05528507002165413
-0.04570696457767501
-0.037244546621386244
-0.029879483526035734
-0.023570944123025357
-0.018258590203971112
-0.013866142231796701
-0.01030528154863982
-0.007479707551507223
-0.00528921274879468
-0.003633647900135145
-0.002416622903292358
-0.0015487491319862792
-0.0009502094978609861
-0.0005524714861315806
-0.000299043072076429
-0.0001452944796994838
-5.749693830992291e-05
-1.1331124064998121e-05
9.816786185341984e-06
1.639093243998531e-05
1.3504627084910169e-05
5.75812803141695e-07
-1.66819093037391e-07
-2.085059697569232e-05
-8.324649678182013e-05
-0.00022772245830460203
-0.0005145874610828585
-0.0010260261564128477
-0.0018658465365882452
-0.003156658516064359
-0.0050346019046677475
-0.007642129359445188
-0.011119631738272474
-0.015596825853988737
-0.021184801215042348
-0.027969468136885084
-0.0360069101097847
-0.045320870797155174
-0.05590234789384419
-0.06771105705031165
-0.08067838812581325
-0.09471140707566664
-0.10969745198901806
-0.12550891612103185
-0.1420078863279459
-0.15905039495537002
-0.1764901328322068
-0.19418155060888223
-0.21198233951681744
-0.2297553286568143
-0.24736986484331996
-0.26470275529285375
-0.2816388563609562
-0.2980713865744252
-0.3139020325312133
-0.3290409044279441
-0.34340638593035344
-0.356924912080719
-0.36953069963739765
-0.38116544693168514
-0.3917780149696949
-0.40132409787651974
-0.4097658885559952
-0.4170717442746717
-0.42321585644540205
-0.4281779289037592
-0.4319428692191397
-0.4345004979055307
-0.43584528069850914
-0.43597608930272
-0.4348959961888545
-0.4326121091643006
-0.4291354516084517
-0.4244808945048647
-0.41866714675202865
-0.41171681068321275
-0.40365651019380994
-0.3945170991827745
-0.3843339578595364