# vtk DataFile Version 4.1 
COMMENT
ASCII
DATASET STRUCTURED_POINTS 
DIMENSIONS 100 100 1 
ORIGIN 0 0 0
SPACING 0.12693303650867893 0.12693303650867893 0 
POINT_DATA 10000
SCALARS U double 1
LOOKUP_TABLE default
0.0
0.0
0.0
0.0
0.0
0.0
0.0
0.0
0.0
0.0
0.0
0.0
0.0
0.0
0.0
0.0
0.0
0.0
0.0
0.0
0.0
0.0
0.0
0.0
0.0
0.0
0.0
0.0
0.0
0.0
0.0
0.0
0.0
0.0
0.0
0.0
0.0
0.0
0.0
0.0
0.0
0.0
0.0
0.0
0.0
0.0
0.0
0.0
0.0
0.0
0.0
0.0
0.0
0.0
0.0
0.0
0.0
0.0
0.0
0.0
0.0
0.0
0.0
0.0
0.0
0.0
0.0
0.0
0.0
0.0
0.0
0.0
0.0
0.0
0.0
0.0
0.0
0.0
0.0
0.0
0.0
0.0
0.0
0.0
0.0
0.0
0.0
0.0
0.0
0.0
0.0
0.0
0.0
0.0
0.0
0.0
0.0
0.0
0.0
0.0
-2.8843607786838186e-12
1.4147367256128449e-09
1.58213195620449e-08
9.046385418178612e-08
3.7120201863533533e-07
1.2332635556488733e-06
3.5216221257028455e-06
8.950691723458542e-06
2.0714119263556335e-05
4.4346371598097466e-05
8.885661473489925e-05
0.00016812234881409123
0.0003024882527455957
0.0005204699254534068
0.0008604194681410721
0.001371977288387681
0.0021171183319418805
0.003170605273161398
0.004619687280831894
0.006562929013943426
0.009108115937104007
0.01236925233910524
0.016462740093578725
0.021502891846238662
0.027596985660896203
0.034840104697444536
0.04331002286421841
0.05306239539326962
0.06412649365917915
0.07650168949628236
0.0901548498739202
0.10501875251936062
0.12099158123222889
0.1379375099647051
0.15568834019691774
0.1740461187393219
0.19278663393467702
0.21166366755714924
0.23041386706093198
0.248762097238529
0.26642713049302136
0.28312753932571144
0.2985876617899425
0.31254351916933537
0.3247485738125019
0.33497922298051414
0.34303993115067066
0.348767908247434
0.3520372448961826
0.35276241854375245
0.35090108700247136
0.34645608968922953
0.33947658258381364
0.3300582414695312
0.31834247946616845
0.30451463841465176
0.28880112748942166
0.2714654939575375
0.2528034179830249
0.23313662540765354
0.21280571313312233
0.19216189044087362
0.17155767161623364
0.15133662909343898
0.13182244718901356
0.11330770657916875
0.09604305840776131
0.08022766558726552
0.066001925366253
0.053443463729973835
0.042567153414297336
0.03332945059518478
0.025636738713922257
0.019356743793219087
0.014331605728031157
0.010390991042149933
0.007363773171897533
0.005087240231894888
0.0034133803467874166
0.002212364698411063
0.0013737498906854415
0.0008060850716602419
0.0004355598245418545
0.00020415657456598866
6.758183364882597e-05
-6.8820566076945284e-06
-4.2518354286216604e-05
-5.522621747223931e-05
-5.538543688011956e-05
-4.9449707475869304e-05
-4.121710289309264e-05
-3.277444610739733e-05
-2.5154637620330477e-05
-1.8769524555182625e-05
-1.3683478401014681e-05
-9.780755287758717e-06
-6.86034228103869e-06
-4.663972444470752e-06
-2.7739824970272664e-06
-1.2102035158777195e-07
-5.891480178024647e-12
4.904888761935897e-09
4.422557054928357e-08
2.2284433145482288e-07
8.32753731652107e-07
2.562954209354538e-06
6.850670991390019e-06
1.6413941006164537e-05
3.5991599520829046e-05
7.329088188712149e-05
0.00014010729132845628
0.00025354089512521225
0.0004371946406291495
0.0007222111328749405
0.0011479911581934738
0.0017624442787383832
0.0026216499728885082
0.003788854445918167
0.0053327877375292775
0.0073253504709132646
0.009838781241300497
0.012942466660176087
0.01669959070114545
0.021163834988535225
0.026376336502010895
0.03236308579797932
0.03913291115058031
0.04667614703931853
0.05496403458179888
0.06394885192584089
0.07356472851031513
0.08372906152597477
0.09434442760072984
0.1053008682012197
0.11647842293677815
0.12774978954088542
0.1389830009620081
0.1500440266716507
0.16079922495061857
0.1711175936790142
0.18087278744759802
0.18994488737452672
0.19822192593074314
0.20560118172885572
0.2119902682462248
0.2173080456685693
0.22148538645899304
0.22446582304242066
0.2262061005010337
0.22667664901942955
0.22586198098458565
0.2237610075983358
0.22038726159016242
0.2157690085407651
0.2099492319000388
0.20298548773932243
0.19494964444635032
0.18592754646645288
0.17601866184851023
0.16533577821953954
0.15400478571774281
0.14216451535570052
0.129966483873622
0.11757424594199067
0.10516190968031335
0.09291129152557862
0.08100723927644153
0.06963088852993327
0.058951041298182016
0.049114399373724256
0.04023591039266855
0.03239081243192619
0.025609934294890266
0.019879354623042408
0.015144714023967477
0.01131951844080836
0.008295952112442362
0.005956289112241357
0.004183077545074531
0.0028668120347601265
0.0019105942570812053
0.0012320310302530802
0.0007631098915610944
0.0004489321803893731
0.00024602973389332424
0.00012069357855546457
4.746089694029415e-05
7.73905319809172e-06
-1.1493156927223316e-05
-1.892506007628301e-05
-2.005643737764357e-05
-1.8179484882409875e-05
-1.5152560675802593e-05
-1.1956354606379075e-05
-9.060225664118456e-06
-6.646031974182177e-06
-4.735262917704915e-06
-3.244008853813249e-06
-1.933964082195837e-06
-8.696567966126066e-08
-6.196166191632412e-12
1.590291997770408e-08
1.2616128898503494e-07
5.876295360834837e-07
2.0737809076155594e-06
6.100966981987749e-06
1.5712935736668622e-05
3.648303888567177e-05
7.786537893895483e-05
0.0001548811651647887
0.00029006959440327465
0.0005155719374587552
0.000875163384901149
0.0014260095984052717
0.002239911596878053
0.0034038175680973976
0.005019422933197203
0.007201745728822889
0.010076645074728557
0.013777336373425689
0.018440038048277235
0.02419895253050042
0.031180832721086453
0.03949941106951718
0.04924997143745131
0.06050432626485418
0.07330642725664795
0.08766879190969701
0.10356987601231796
0.12095246871130064
0.13972313598187616
0.15975269342473677
0.18087765219980487
0.20290255348975805
0.2256030871864454
0.24872987886001582
0.2720128244050771
0.2951658527149261
0.3178920018875564
0.33988870243229996
0.36085317046405807
0.3804878238512534
0.3985056438129472
0.4146354128015275
0.4286267660704605
0.44025499864151335
0.4493255710714205
0.4556782561632424
0.45919086433528167
0.4597824776338047
0.45741611147324884
0.4521007096713599
0.4438923635421959
0.4328946322136691
0.4192578330216091
0.4031771736526358
0.38488961897653856
0.3646694327662566
0.34282241307132505
0.31967894939137415
0.29558615967821505
0.27089949272286434
0.24597427218227708
0.2211576731336182
0.19678153011632935
0.17315617299720676
0.15056521106473295
0.12926091880851742
0.10945972931419456
0.0913374133846034
0.07502385443727555
0.06059786008440094
0.0480830131021688
0.03744592606406101
0.02859821850209744
0.021402999581637376
0.0156857150297038
0.011248178645677162
0.007883806620068353
0.005391791997693991
0.0035882937619816277
0.0023135368725401098
0.0014347237692989318
0.0008455067617434089
0.00046323090665886227
0.00022517721055684563
8.473392318844879e-05
8.000936712701535e-06
-2.9028857723809086e-05
-4.277279487922444e-05
-4.3961104637435125e-05
-3.9219061761882655e-05
-3.235733793511364e-05
-2.5374329233719112e-05
-1.918160740441485e-05
-1.4085828628125102e-05
-1.0074492051289095e-05
-6.936109520277114e-06
-4.147974941974168e-06
-1.8198381574570757e-07
1.9292889514625448e-11
4.659279328842996e-08
3.314362406503948e-07
1.4329804799152912e-06
4.771422782742004e-06
1.3371055882539892e-05
3.300821204085537e-05
7.378660481114847e-05
0.00015212098722274079
0.0002930320748445068
0.0005325730093657216
0.0009201356402377006
0.0015203385982413761
0.002414189852941805
0.003699249339287951
0.005488590215824232
0.007908461533621972
0.0110946767667485
0.015187875677385781
0.020327915740487562
0.026647731115658928
0.034267043749958474
0.04328631967038303
0.053781335915941295
0.06579866594688871
0.07935231249930527
0.09442162663066272
0.11095055980223109
0.1288482106283185
0.14799055573691236
0.16822319905744404
0.18936493752181455
0.21121192338578545
0.23354220235672626
0.2561204196230069
0.27870250935201585
0.3010402137757332
0.322885312347273
0.34399347679698944
0.36412770196623945
0.38306129336385464
0.40058041934597843
0.4164862580178464
0.4305967861325999
0.44274826942698114
0.4527965211628771
0.4606179983808931
0.466110803740807
0.46919565494903903
0.4698168736162469
0.46794343069824385
0.46357006598113665
0.45671847376431696
0.4474385154414774
0.43580938208220577
0.421940587638649
0.40597262952294183
0.3880771146546808
0.36845612585843984
0.34734060859167215
0.3249876041105378
0.3016762496926488
0.2777026048442567
0.253373522398225
0.22899992458729812
0.2048899155355237
0.1813421193717944
0.15863946493186115
0.13704338349145753
0.11678814088082509
0.09807491764239659
0.08106538956579368
0.06587497356548665
0.05256649334986984
0.04114557036832372
0.03155929403148708
0.023699471772165186
0.01741097784314631
0.01250460182034614
0.008772700753618834
0.006005266579082291
0.004003980115926235
0.0025924376694929844
0.0016217668261294359
0.0009719242816781613
0.0005497510721675668
0.0002851720081148089
0.00012679302102015617
3.774875713290414e-05
-7.798531756101883e-06
-2.744744882692686e-05
-3.274145372656871e-05
-3.088648333001604e-05
-2.6101371825070323e-05
-2.065526305288949e-05
-1.5624421982463774e-05
-1.1397939434032233e-05
-7.947989681999629e-06
-4.784158822877392e-06
-2.1116542937088052e-07
1.5227825508249785e-10
1.2592466471904173e-07
8.181520433165988e-07
3.3153382849727087e-06
1.0484504195292494e-05
2.8134340545941895e-05
6.688311843069975e-05
0.00014458196409499374
0.00028919458534075237
0.0005419253288273556
0.0009602893582332492
0.0016207523825322817
0.0026205484291683834
0.004078319884297373
0.006133311714996215
0.008942979622934057
0.012679021581002528
0.017521992789368807
0.023654795730810724
0.03125543422659559
0.0404894740308366
0.05150266029630713
0.06441410818910658
0.07931041571202961
0.09624095880715386
0.11521453012375152
0.1361973855186278
0.15911267525258188
0.18384116597580813
0.21022310804153635
0.2380610709113341
0.26712355581835834
0.2971491964550901
0.32785137155316
0.3589230739853257
0.39004190589279375
0.42087509533983264
0.45108445483640464
0.48033122417992724
0.5082807585318165
0.5346070370810673
0.5589969780713812
0.5811545526568591
0.6008046934215335
0.6176969939123796
0.6316091936361006
0.6423504390415941
0.6497643053723794
0.6537315571937453
0.6541726171210376
0.6510497030452876
0.6443685842354132
0.634179896363369
0.6205799449858775
0.603710916487478
0.5837604050752495
0.5609601544451257
0.5355839042866327
0.5079442275515749
0.4783882496863587
0.44729216423763335
0.4150545110105747
0.3820882728263646
0.348811977390982
0.3156401499695825
0.2829736187899394
0.25119027831017887
0.22063690962708843
0.19162250395777702
0.164413241600593
0.13922891683232835
0.11624029857390163
0.09556682462018468
0.07727424180345556
0.061372308323679445
0.04781330686142739
0.03649261193922509
0.027252644016397147
0.019891084066115443
0.014173291168786559
0.00984775249767034
0.006662498566690219
0.004380074742753172
0.0027890012385081097
0.001710543049090554
0.0010007176150838653
0.0005484161539553049
0.0002710416756717277
0.00010910842006780933
2.092363525803264e-05
-2.2003696612246758e-05
-3.861386311366713e-05
-4.1069966427555376e-05
-3.6827021685773096e-05
-3.016726791569521e-05
-2.3324564103972984e-05
-1.7269690766021308e-05
-1.216872719289043e-05
-7.3675909736204726e-06
-3.2255498239327634e-07
6.331379383350771e-10
3.171746973931114e-07
1.9055491496052255e-06
7.283305354754705e-06
2.1960558216694517e-05
5.6572823455876484e-05
0.00012973322488901525
0.0002715010428689892
0.0005272167858381774
0.0009613176948533168
0.0016606517942061537
0.002736776590260455
0.004326771800453451
0.006592211321565086
0.009716111990634827
0.013897880029545348
0.01934648079758642
0.02627223556938173
0.034877778663364806
0.045348776559015175
0.05784501470063975
0.07249240339387159
0.0893763540622612
0.108536847382179
0.12996537256407026
0.1536037778928835
0.17934494901667591
0.20703513182127725
0.23647764538995936
0.2674376882051644
0.2996479252240906
0.33281455063544707
0.3666235458373495
0.40074688907023504
0.43484851713067324
0.4685898863326793
0.5016350259310259
0.5336550200848987
0.564331892513154
0.5933619004183027
0.6204582707639601
0.6453534327219705
0.6678008154558209
0.6875762908861653
0.7044793472031422
0.7183340810742116
0.7289900950222828
0.7363233814084352
0.7402372657392386
0.740663469343151
0.737563334406742
0.7309292324739979
0.7207861504234958
0.707193415525614
0.6902464837322015
0.6700786737237291
0.6468626850243387
0.6208116942113525
0.5921797826486426
0.5612614177492352
0.5283896953539483
0.4939330639640681
0.45829030499529205
0.4218836491948774
0.385150074376025
0.34853104671777546
0.31246120915187486
0.277356734340246
0.24360417910602297
0.21155063963535464
0.1814957856396577
0.15368598415130974
0.1283103192879473
0.10549802933787295
0.08531685911801
0.06777211706128332
0.052806745083344674
0.04030323311209389
0.03008846288212952
0.021942342542771588
0.015610375912870737
0.010819302982208004
0.007294011830747876
0.004773420382604519
0.0030231644117410875
0.00184366120853504
0.0010731776146281483
0.0005865504754894265
0.0002908818779308712
0.00011972901999211227
2.7089639614784806e-05
-1.7965565108338554e-05
-3.563506860774103e-05
-3.867763683904595e-05
-3.4811613244200174e-05
-2.8425801211403043e-05
-2.1764399253682053e-05
-1.564960895397098e-05
-9.570778108654906e-06
-4.1872798699898435e-07
2.0823727835851907e-09
7.50440337933136e-07
4.208323797728698e-06
1.5252817412429204e-05
4.4006154750888555e-05
0.00010911982459870077
0.00024189341049272003
0.0004909462193597823
0.0009269757600314976
0.0016470015091293686
0.0027774399644656085
0.00447540517468634
0.0069277749875486265
0.010347785426876144
0.014969178636150774
0.021038192884819413
0.028803908018447722
0.03850761749077208
0.05037197292808357
0.06459063721172718
0.08131909768083526
0.10066715123748204
0.1226934011747048
0.14740192491798432
0.17474110294041365
0.2046044570481317
0.23683324014353474
0.27122045270575323
0.3075159319157598
0.3454321623825248
0.38465048549947944
0.4248274295367379
0.46560093693769217
0.5065963222808598
0.5474318487946581
0.5877238595672962
0.6270914395710951
0.6651606154945144
0.701568122311061
0.7359647793639289
0.7680185257689359
0.7974171665708991
0.8238708787609129
0.8471145212775262
0.8669097865719415
0.8830472240713438
0.8953481585231026
0.9036665190898132
0.9078905882906301
0.9079446733163499
0.9037906955352322
0.8954296866063811
0.8829031708156069
0.8662944022236936
0.8457294111297119
0.8213777964757183
0.7934531787145886
0.7622132014048872
0.7279589402786066
0.6910335478913334
0.6518199342122878
0.6107372652646571
0.5682360630700484
0.524791723726721
0.48089635079959225
0.43704893936878586
0.39374414237914274
0.35146008637110787
0.31064593452184974
0.2717100560782946
0.23500968287700358
0.20084277006387768
0.16944243967362757
0.14097395660642967
0.11553381178829981
0.09315032264767824
0.07378529944016024
0.05733673419781
0.04364297342331775
0.03248917830703773
0.023616828757592166
0.01673651057979763
0.01154337068634972
0.007733739470034506
0.00502085522311812
0.003147623949976557
0.0018949293535256708
0.001084966572982624
0.0005800765697266927
0.0002782935314697981
0.00010711472137743301
1.6873517688572514e-05
-2.53062484163156e-05
-4.04744199839636e-05
-4.1631210684096134e-05
-3.6445695848857655e-05
-2.911795158810248e-05
-2.1508966476974533e-05
-1.3346287397547049e-05
-5.811243447317165e-07
5.949016112998859e-09
1.6779482288372714e-06
8.846947600214257e-06
3.053869350309879e-05
8.455717134909595e-05
0.00020226428778302198
0.00043416773682007886
0.0008557615587957686
0.0015728726066102
0.002725678250311427
0.004490606690157987
0.007079510361321245
0.01073578709582661
0.01572746539974409
0.02233761361475278
0.030852725624579226
0.041549938902371214
0.05468403325765153
0.07047513920203118
0.08909796856415649
0.11067319333724497
0.13526137341698632
0.16285960103962532
0.19340081563036474
0.22675556621598741
0.26273587002478116
0.30110073814917065
0.3415629087505806
0.38379633760373466
0.42744403496943173
0.47212589654090104
0.5174462450416207
0.5630008701068343
0.608383421502343
0.6531910706855044
0.6970294061530375
0.7395165683451842
0.7802866605199387
0.8189924940615897
0.8553077415579945
0.8889285801577637
0.919574912586066
0.9469912549280058
0.970947379786727
0.99123880130979
1.007687185196338
1.0201407622373428
1.028474818062732
1.03259232423624
1.0324247661522554
1.0279332107275854
1.019109640953053
1.0059785642837418
0.9885988770033733
0.9670659367131449
0.9415137599431386
0.9121172220631446
0.8790940933676589
0.842706700463488
0.8032629589357188
0.761116485931733
0.7166654754579428
0.6703500123273761
0.6226475224712715
0.5740661193328026
0.5251357203017625
0.47639698218731585
0.4283883391566377
0.38163170106121813
0.3366176415290075
0.29379110839243044
0.25353875057551417
0.2161788206756798
0.18195427691572386
0.15102924024744044
0.12348849771618493
0.09933944281343464
0.07851582515332427
0.06088295280772329
0.046244421094341744
0.034350802963092605
0.024910799526380777
0.01760500154026372
0.012101729438884146
0.0080736505994105
0.005213337634026438
0.0032458752978196
0.0019371025039140958
0.001096934627448859
0.0005781577918166105
0.00027182366446837076
0.00010071649878198479
1.2296133878446327e-05
-2.7836730758266794e-05
-4.137027460933778e-05
-4.1430187609109544e-05
-3.551967860118775e-05
-2.7352893471130775e-05
-1.735442211629608e-05
-7.536933571018893e-07
1.534835651683596e-08
3.5628681155761042e-06
1.776452133600969e-05
5.8614643275939425e-05
0.00015615660908167728
0.0003610430368892825
0.0007516191408940126
0.0014406130511705178
0.0025803815698866874
0.004365693093184058
0.007033243041169488
0.010857456028189454
0.016142569426005778
0.023211438628722936
0.03239188340688758
0.044001653592348
0.058333203246180305
0.07563942486699024
0.09612133143533547
0.11991842169991589
0.1471021669737131
0.17767275800033086
0.21155898269645843
0.24862089333148846
0.2886547767641781
0.3313998649370073
0.3765462080002387
0.423743167053484
0.4726080530384908
0.5227345282726826
0.5737004846351229
0.6250752073144057
0.6764257181213595
0.727322263377655
0.7773429665186385
0.8260777049195903
0.8731312955177617
0.9181260867861268
0.960704058079402
1.0005285238797088
1.03728553236038
1.0706850369610856
1.1004619079320446
1.1263768392751774
1.1482171960402072
1.16579783806194
1.1789619492124839
1.1875818961062312
1.191560136723013
1.1908301971640458
1.1853577330428258
1.1751416899004
1.1602155733256865
1.1406488327306947
1.116548351399543
1.0880600179171662
1.0553703290322087
1.0187079405999793
0.9783450415776624
0.9345983775090027
0.8878296976423667
0.8384453489168809
0.7868946979878568
0.7336670392047623
0.6792866543965421
0.6243057435942497
0.5692950583086057
0.5148322502342456
0.46148819708057026
0.40981186402589215
0.3603145603290504
0.3134546892816098
0.2696241892637164
0.22913776277931078
0.1922256743238325
0.15903042243087884
0.12960708123520406
0.10392672119812864
0.08188218639682321
0.06329566040830101
0.0479277990812329
0.03548854903484977
0.02564989065280232
0.018060518327498196
0.012361937952613982
0.008204824124466725
0.0052640170368027095
0.0032504804575475403
0.001918957503866306
0.001070829683203714
0.0005525537518562085
0.00025074869116658064
8.535168255840693e-05
2.2251229138150614e-06
-3.372341959582512e-05
-4.4280994314391066e-05
-4.227900473664321e-05
-3.446569428399534e-05
-2.2523087671633595e-05
-9.743449152147647e-07
3.65161033512614e-08
7.213372803433116e-06
3.417317135194376e-05
0.00010811187289154885
0.0002777497252796917
0.0006217773683618722
0.0012571431711168534
0.0023458517423338133
0.0040989613303352955
0.006776710367024481
0.010684147909661379
0.016162205398971067
0.023574724541055882
0.033292449667694415
0.045675328838924056
0.061054608475729855
0.07971615146696852
0.10188619000713098
0.127720393761656
0.1572967509108327
0.190612380257823
0.2275840614249937
0.2680520160487672
0.3117863084373872
0.35849515794322795
0.40783445557632764
0.4594178363475793
0.5128267565541311
0.5676201427557873
0.623343300613971
0.6795358852025247
0.735738832220209
0.7915002279345889
0.8463801539342072
0.8999545823146701
0.9518184205579703
1.0015878164682135
1.0489018355345299
1.0934236191143987
1.1348411244475973
1.1728675386907148
1.2072414502745057
1.237726852771471
1.2641130495281647
1.286214521646923
1.3038708173444657
1.316946516964136
1.3253313245708573
1.3289403336438277
1.3277145103808732
1.321621432962606
1.310656318144469
1.2948433570090307
1.2742373687746225
1.2489257642820357
1.2190307881909295
1.1847119801051422
1.1461687591666032
1.1036429939997014
1.0574213710223663
1.0078373211140044
0.9552722111661126
0.9001554588942916
0.8429631945116124
0.7842150818979038
0.7244689373420254
0.664312859586211
0.6043547235405481
0.5452090992749686
0.4874819339892111
0.43175365537934063
0.37856167441080013
0.32838351632115614
0.2816219137337207
0.23859309303479442
0.19951915764366562
0.16452497046168757
0.1336393818597774
0.10680019459378123
0.08386203605064532
0.06460636901924285
0.048753143284391426
0.035973900791222375
0.02590630013639015
0.01816989609311816
0.012382613524393914
0.008176855806574125
0.005213825232276036
0.003194609556243287
0.0018669733616836948
0.001027486681283978
0.0005194072934223067
0.00022736638693357283
7.022577350617727e-05
-6.5550448469077315e-06
-3.7991396492795955e-05
-4.5410047829032626e-05
-4.061450032315527e-05
-2.7713687754523156e-05
-1.1950929188675048e-06
8.1166561495287e-08
1.3973289473599672e-05
6.314624040853967e-05
0.00019205424106295732
0.00047674505502725753
0.0010349654928307138
0.0020349031912708926
0.0037008431170140136
0.0063143159391212626
0.010209854433746402
0.015765186932406694
0.023386444060966922
0.03348960093834322
0.04647981880930371
0.06273053467718392
0.08256407432706081
0.10623527634435655
0.13391918327324634
0.1657033617029818
0.20158493071444242
0.24147196584693073
0.2851886395464176
0.3324832726510279
0.3830383998359896
0.43648197686432016
0.492398953590877
0.5503425767636723
0.6098449458156766
0.6704265028473947
0.7316042804971757
0.7928988498015537
0.8538400008859263
0.9139712526600502
0.972853326469815
1.030066737158961
1.0852136580132201
1.1379192082323906
1.1878322969728294
1.2346261399255023
1.2779985453327152
1.3176720480389863
1.3533939537261583
1.3849363415170821
1.4120960619103324
1.4346947585582757
1.45257893660353
1.4656200969342885
1.473714954534254
1.4767857597469418
1.4747807433133462
1.4676747089039717
1.4554697997845258
1.438196468215337
1.41591467588543
1.3887153495282205
1.3567221060179129
1.3200932437489412
1.279023970111341
1.233748796996225
1.184543986989317
1.1317298731327181
1.075672807688795
1.016786425471024
0.9555318429983936
0.8924163667946983
0.8279902659752808
0.7628411910263277
0.6975859077768177
0.6328591757272309
0.5692998386781778
0.5075345052427145
0.4481595498722065
0.3917225105378909
0.33870422577847137
0.2895031630045963
0.24442328030358396
0.20366641975598315
0.16732970252955398
0.13540780204428285
0.10779946414873584
0.08431735565103436
0.06470030958924905
0.04862724175853879
0.03573228897545755
0.02562088794450633
0.01788645571579836
0.012127053118865699
0.007961044578768768
0.005040513083308712
0.0030612200333853257
0.0017682738556470236
0.0009573023518954051
0.0004716215668619232
0.0001964496353374024
5.1487167403246786e-05
-1.684486450484731e-05
-4.2447897956192146e-05
-4.5009527916237007e-05
-3.2821463811833276e-05
-1.4102805325050931e-06
1.7007699135269273e-07
2.5977248612377716e-05
0.00011235376330762998
0.00032927227452676127
0.0007911518271227313
0.0016678922004167858
0.0031927418164457043
0.00566502187961453
0.009446450027720038
0.014950698764785846
0.022626787785954054
0.03293775814919105
0.04633666558988204
0.0632421834885109
0.08401601952151354
0.10894398129697319
0.1382219712415462
0.17194755867279218
0.2101171673308076
0.252628405542684
0.2992866986210072
0.3498151735222854
0.4038666837122896
0.46103692026545323
0.520877697806312
0.5829096943218379
0.6466341297488666
0.7115430644926857
0.7771281689306863
0.8428879496615806
0.9083335154529729
0.9729930279196624
1.0364150142540323
1.098170728505785
1.1578557408057157
1.2150909167338029
1.2695229268366903
1.3208244029327607
1.3686938359094096
1.412855290754865
1.453057999266722
1.4890758793154133
1.520707021383947
1.5477731778030623
1.5701192870158198
1.5876130637134656
1.600144685233881
1.6076266047567138
1.6099935222169723
1.6072025442210967
1.5992335643441693
1.5860898947356057
1.567799178566061
1.5444146099059552
1.5160164822415034
1.4827140777688497
1.4446478952775046
1.4019921930051225
1.3549577924415284
1.3037950481291936
1.248796836336333
1.190301352825073
1.1286944397169978
1.0644110893702183
0.9979357081364962
0.9298006770615279
0.860582735069389
0.7908967496451355
0.7213865466929922
0.6527126572586471
0.585537107258122
0.5205057151673225
0.45822873883705306
0.39926107003122424
0.34408343931610963
0.2930861862379744
0.2465570123793187
0.20467375739199015
0.16750267584597112
0.13500206400161663
0.10703054076347798
0.08335895604142692
0.06368483824237957
0.047648453794155526
0.034849802457345785
0.024866053246209517
0.01726892853482098
0.011641367107634235
0.007592550483137181
0.004770228656289138
0.0028693726942155147
0.00163655475190898
0.0008700315527838881
0.0004161201396408514
0.0001629294293664172
3.274072633793135e-05
-2.5668904190954577e-05
-4.3522786987632845e-05
-3.589938216403047e-05
-1.5380726248332938e-06
3.38204923795229e-07
4.647145466202394e-05
0.00019291348255841718
0.0005458867920022938
0.0012715424166065124
0.002606530487533621
0.004863034059547444
0.008426308606804645
0.013744040038512501
0.02130807165090321
0.03163017022480927
0.04521429858417535
0.06252822297869015
0.08397719670540876
0.10988200027391937
0.14046291133578223
0.1758303711345765
0.2159823421718205
0.26080771415554377
0.31009466927731494
0.3635426790084225
0.4207767551802738
0.4813626787953244
0.5448221317981974
0.6106469111501696
0.6783116692982231
0.7472848695141133
0.8170378491723425
0.8870520398955587
0.9568244999541818
1.0258719763644852
1.0937337399725824
1.1599734357706288
1.2241801717634357
1.2859690406428597
1.3449812354130688
1.4008838872757843
1.4533697242795893
1.5021566239161255
1.5469871124981887
1.5876278486251174
1.6238691167989359
1.6555243496064238
1.682429692119205
1.7044436196552093
1.7214466192858604
1.733340946094787
1.740050466947445
1.741520607252521
1.737718419755066
1.7286327986384171
1.7142748668653351
1.6946785693152462
1.669901508166051
1.640026059076823
1.6051608056075382
1.5654423231104055
1.5210373298437385
1.4721451999118318
1.4190007975652554
1.3618775437385593
1.30109056299803
1.2369996838051154
1.1700119813473042
1.1005834676531234
1.0292194594692676
0.9564731051483917
0.8829415449960282
0.8092592335508696
0.7360880836306414
0.6641043111056724
0.5939821652421248
0.5263751037110304
0.46189537364252103
0.4010933276472023
0.34443805833750823
0.2923009993700708
0.2449439633729409
0.20251266552591576
0.16503617930966308
0.13243210995709218
0.10451669987872278
0.08101872355086517
0.06159593939323752
0.045852999678237014
0.03335995532845597
0.02367068697653363
0.016340649546801055
0.010943231446547462
0.007083892479108115
0.004411194620949622
0.0026239885343281363
0.001474392312197376
0.0007667226496704433
0.00035307230057711876
0.00012663613214759174
1.4118646049797204e-05
-3.130338334881114e-05
-3.476167992929853e-05
-1.4864466388936728e-06
6.415541671487804e-07
8.019074150034401e-05
0.0003202972840791216
0.00087669239042839
0.001982503979031211
0.003956204970999447
0.007201272114326623
0.012196028881779092
0.019474048338476223
0.029596971159311293
0.04312268386882541
0.06057233202314972
0.08239958208524761
0.10896498519772789
0.14051740515202876
0.17718344825358714
0.21896485425236442
0.2657430082756247
0.3172891879004077
0.3732788844115995
0.43330850549990824
0.4969129227605433
0.5635826045660036
0.632779408493216
0.7039504437902998
0.77653971503595
0.8499975007647994
0.9237875969071723
0.9973926664624506
1.0703179927453503
1.1420939460918265
1.2122774561200742
1.2804527454758008
1.3462315363061137
1.4092528948545044
1.4691828374517293
1.525713785574554
1.5785639296734881
1.6274765410656493
1.672219257533878
1.7125833601595324
1.7483830550085069
1.7794547723081002
1.805656496585349
1.8268671429994356
1.8429859971518145
1.8539322375946155
1.8596445618924178
1.8600809384130221
1.8552185071491993
1.8450536539973823
1.829602284231221
1.8089003225074367
1.7830044685284527
1.7519932390410249
1.7159683273127861
1.675056309198395
1.6294107183988045
1.5792145000119617
1.5246828281149536
1.466066237095363
1.4036539655878582
1.3377773454190145
1.2688129875037868
1.1971854270094406
1.1233688001238247
1.0478870475380682
0.9713120923068466
0.894259441765067
0.8173807346093972
0.7413529116655716
0.6668639405546478
0.5945953647257161
0.5252023508905543
0.459292327710641
0.3974036735069493
0.3399861410548537
0.2873847290212955
0.23982847874620056
0.19742520148866513
0.16016249833356128
0.12791474923469778
0.10045516503196152
0.07747163391865806
0.058584997047574555
0.04336851276265625
0.03136750236544291
0.02211838252589425
0.015166394231081312
0.010081331972074982
0.006470535697498875
0.003988443453374549
0.0023421998144404874
0.001293186287277134
0.0006548171634619758
0.00028741943367303885
9.140778206355874e-05
2.707049947600551e-07
-2.5020392323474842e-05
-1.0735880811736424e-06
1.1658229321557227e-06
0.000133769376126339
0.0005151996743538912
0.0013662250121891878
0.0030032177867332986
0.005840552493408778
0.010381957126433724
0.01720022284074705
0.02690721968686522
0.04011766797616346
0.05741090639276584
0.07929491226504512
0.10617617211309516
0.13833789172184843
0.17592773753453314
0.21895505767570148
0.2672965209411774
0.32070843413216527
0.378843672872075
0.44127114885751567
0.5074959609020349
0.5769787480084687
0.6491531946140644
0.7234410620722646
0.7992644889898416
0.8760555905194848
0.9532635857084083
1.0303597984147466
1.1068409250754425
1.182230959183345
1.256082125201374
1.3279751191424571
1.397518891230518
1.4643501464249258
1.5281326863540101
1.5885566738865853
1.64533786970758
1.6982168680742644
1.7469583448969255
1.7913503236043273
1.8312034611302954
1.8663503562133377
1.8966448837615704
1.9219615613605372
1.9421949564696208
1.9572591451191783
1.9670872348647528
1.9716309664270446
1.9708604100135434