# vtk DataFile Version 4.1 
COMMENT
ASCII
DATASET STRUCTURED_POINTS 
DIMENSIONS 100 100 1 
ORIGIN 0 0 0
SPACING 0.12693303650867893 0.12693303650867893 0 
POINT_DATA 10000
SCALARS U double 1
LOOKUP_TABLE default
0.0
0.0
0.0
0.0
0.0
0.0
0.0
0.0
0.0
0.0
0.0
0.0
0.0
0.0
0.0
0.0
0.0
0.0
0.0
0.0
0.0
0.0
0.0
0.0
0.0
0.0
0.0
0.0
0.0
0.0
0.0
0.0
0.0
0.0
0.0
0.0
0.0
0.0
0.0
0.0
0.0
0.0
0.0
0.0
0.0
0.0
0.0
0.0
0.0
0.0
0.0
0.0
0.0
0.0
0.0
0.0
0.0
0.0
0.0
0.0
0.0
0.0
0.0
0.0
0.0
0.0
0.0
0.0
0.0
0.0
0.0
0.0
0.0
0.0
0.0
0.0
0.0
0.0
0.0
0.0
0.0
0.0
0.0
0.0
0.0
0.0
0.0
0.0
0.0
0.0
0.0
0.0
0.0
0.0
0.0
0.0
0.0
0.0
0.0
0.0
-9.410886195647666e-13
4.6159018732812843e-10
5.1269378220381986e-09
2.915136784817944e-08
1.1897758156069954e-07
3.9316999741617085e-07
1.1165996217147266e-06
2.822180604175224e-06
6.493850958353897e-06
1.3820713623174535e-05
2.7524801417845385e-05
5.17541397960059e-05
9.251980696076787e-05
0.0001581423647010753
0.00025966156159794925
0.00041115576105113006
0.0006299158284446963
0.0009364231377854224
0.0013540928646533941
0.0019087607824609394
0.002627912538991289
0.0035396765313927426
0.004671622558856992
0.006049426171308958
0.007695471312187856
0.009627470420900815
0.011857181309457912
0.014389294251157566
0.01722055177738093
0.020339149015895258
0.02372444554817733
0.027347002237032993
0.03116893964355297
0.03514459961252368
0.03922147913207459
0.043341396104255976
0.047441840323596836
0.05145745961295684
0.055321630373999515
0.05896806330707663
0.06233239821096645
0.06535374604728279
0.0679761413453754
0.07014987310036543
0.071832667242965
0.07299069830615267
0.07359941196569139
0.07364414368745115
0.07312052187977519
0.07203464692088851
0.07040304047301375
0.06825236289503893
0.06561890057836046
0.0625478297968032
0.059092269119829746
0.05531213824609689
0.05127284661725129
0.0470438394698924
0.04269703114449767
0.03830515490609856
0.03394005549117015
0.029670946617004455
0.025562653761474
0.021673866645178674
0.01805543981141082
0.014748805130942873
0.011784594303506557
0.009181604205064994
0.006946259896185009
0.005072724054754822
0.0035437559936207833
0.0023323366272231553
0.0014039601697275136
0.0007193748414032616
0.00023746618854637662
-8.20535900402331e-05
-0.00027644557543495663
-0.00037842471820370303
-0.0004153753597349163
-0.0004092247627558049
-0.00037680697601552224
-0.00033051656737562846
-0.00027907286752748274
-0.00022826951562630047
-0.00018164472569046414
-0.00014105404793455161
-0.00010715112386149573
-7.978662074757805e-05
-5.833107250114015e-05
-4.192313290872715e-05
-2.9645337782720185e-05
-2.0634236042329392e-05
-1.4137266378860708e-05
-9.531839366658805e-06
-6.3215430429481945e-06
-4.120972933180641e-06
-2.635650274882548e-06
-1.6357979976413898e-06
-9.00927346483238e-07
-3.930469797242134e-08
-1.9343987350579637e-12
1.6103486816172664e-09
1.4455719423090175e-08
7.252741831791327e-08
2.6984206410158557e-07
8.267200167937948e-07
2.199371848492463e-06
5.243804612575342e-06
1.1439885954996418e-05
2.3172647125272132e-05
4.405644443391983e-05
7.927517114911558e-05
0.0001359006099622181
0.00022314360626543814
0.0003524909400177492
0.0005376856062407762
0.0007945195769311382
0.0011404247750992226
0.0015938678097383232
0.0021735743603971537
0.002897627285410914
0.003782496280222991
0.004842064676945673
0.006086720093224286
0.007522570348543598
0.00915083537746464
0.010967451327496602
0.012962906445169281
0.015122311538295434
0.01742569234708408
0.019848478283272006
0.022362152481100604
0.024935022272433258
0.02753306697520413
0.030120820878937003
0.03266225291944216
0.035121610042489634
0.03746419792822127
0.03965707989906127
0.04166968187610355
0.04347429771758635
0.04504649483300656
0.04636542440477422
0.0474140437589168
0.04817926038555312
0.048652007863157834
0.04882726358427749
0.04870401685609764
0.04828519384825379
0.0475775432372123
0.04659148359101882
0.045340910995469635
0.0438429636994453
0.0421177402901056
0.0401879697203926
0.03807863582883938
0.0358165657748765
0.03343000023064529
0.030948171327893688
0.02840091924954096
0.02581837625560705
0.02323073440580197
0.02066808874361231
0.018160313454578372
0.015736891858403008
0.013426594419426814
0.011256897173935933
0.00925306848278203
0.007436928253101712
0.00582538975393608
0.004429003276093876
0.003250796342737317
0.002285711882361529
0.0015208653069854645
0.0009366836167473911
0.000508794315153919
0.00021035780078453316
1.4440495465765311e-05
-0.0001039610987744571
-0.00016651980498059172
-0.00019089998652979187
-0.0001907281043050931
-0.00017601825345904627
-0.00015382154712935604
-0.00012890392066343244
-0.00010433377510731391
-8.194013764104398e-05
-6.265590235690173e-05
-4.678073904391794e-05
-3.419268923187228e-05
-2.4521908496881885e-05
-1.7287625149458688e-05
-1.1995704768694895e-05
-8.197612189018986e-06
-5.5171235665585575e-06
-3.6545708710418845e-06
-2.37767946057511e-06
-1.501620424367796e-06
-8.393778895639775e-07
-3.743670487797949e-08
-2.049895679572149e-12
5.2603492941344665e-09
4.157303365249804e-08
1.928570965886203e-07
6.776888726496159e-07
1.984686181341231e-06
5.087085008509836e-06
1.1752122937215014e-05
2.4950565285553837e-05
4.935641215537122e-05
9.19084277451447e-05
0.0001623865989474105
0.0002739413709026761
0.0004435046602170646
0.0006920114030406701
0.0010443695455645777
0.001529134174468738
0.0021778657899589418
0.0030241804751620477
0.004102527460993059
0.005446754061485387
0.007088536556332101
0.009055766680309352
0.01137098636522884
0.014049958686666775
0.01710045180493411
0.02052129678284656
0.02430176145897436
0.02842126296032342
0.03284942261591382
0.03754645027477515
0.042463831205235406
0.04754527830508959
0.05272790536497241
0.05794357339097777
0.063120361095927
0.06818411208246146
0.07306001439100485
0.07767417240891204
0.08195513612218457
0.08583535790096485
0.08925255209220972
0.09215093737963533
0.09448234597179796
0.09620718706985033
0.09729525467634109
0.09772637160578118
0.09749086254882537
0.09658984925529077
0.09503536040188537
0.09285024761875099
0.09006789768061124
0.08673172939690252
0.08289446286968223
0.07861714944618158
0.07396795412752638
0.06902068990618516
0.06385311695635801
0.058545039684449504
0.05317626089977038
0.047824482116426634
0.04256326677213075
0.03746020085800686
0.03257538384933767
0.027960354438159578
0.02365749862485375
0.019699909758520807
0.016111589230002683
0.012907818440738615
0.01009552291614581
0.007673502327431452
0.005632508902719826
0.003955289799089925
0.0026168174551631914
0.001584966484036538
0.0008218284977418666
0.00028569729283054184
-6.644479059386022e-05
-0.0002762809996485985
-0.00038177426152634104
-0.00041541293849857696
-0.0004033041033132713
-0.00036512425548921565
-0.00031475384727104095
-0.00026131690050705406
-0.00021033927213021767
-0.00016480874424342626
-0.0001260237665247251
-9.421156407283294e-05
-6.895394795898383e-05
-4.947685209060296e-05
-3.485028025550442e-05
-2.4126844340405575e-05
-1.643247695674467e-05
-1.1016695817943448e-05
-7.269617884661415e-06
-4.713247117046796e-06
-2.9673439726723597e-06
-1.6530777037383955e-06
-7.259011405574956e-08
6.436278829033893e-12
1.554474384690362e-08
1.1022237486859065e-07
4.748289508800887e-07
1.5748089018898784e-06
4.394422265630278e-06
1.079935131953374e-05
2.402608914732455e-05
4.92855464139657e-05
9.444277950697427e-05
0.0001707090192370828
0.0002932614479766212
0.00048169518865402917
0.0007602139597905424
0.0011574817810347236
0.0017060864676922856
0.0024416027569638733
0.003401283674358399
0.004622447634636561
0.0061406607422544515
0.00798783504884314
0.010190372105936327
0.012767476825454104
0.015729750875388696
0.01907815026381965
0.022803361764372115
0.02688562093212167
0.03129496387219532
0.03599187824565205
0.040928298008621446
0.04604887200659184
0.05129242892672336
0.05659355974864847
0.061884242775697595
0.06709544435796665
0.0721586392299721
0.07700720672170974
0.08157767185366348
0.0858107725913455
0.08965234564092611
0.09305403266739054
0.09597381646464587
0.09837640232297425
0.10023346366866387
0.10152377312501658
0.10223324064513835
0.10235487949724899
0.1018887188414318
0.10084167859930929
0.0992274184257544
0.09706616794111478
0.0943845400270236
0.09121532295682039
0.08759724047267621
0.08357466179848787
0.07919723641036751
0.07451942203705952
0.06959987030891897
0.06450063486681049
0.0592861741887934
0.05402213831260494
0.04877395612735801
0.04360527631727041
0.038576354687742134
0.03374251355228396
0.0291528125234881
0.02484905307898137
0.020865187049739577
0.017227119000092633
0.013952805455221854
0.01105249103006985
0.008528913003344728
0.006377367208205061
0.004585648155349458
0.0031340151313149866
0.0019954362835188097
0.0011363725122313
0.0005182610047717512
9.966853414991051e-05
-0.00016112824540431196
-0.00030353421550009487
-0.0003624353344142512
-0.00036674701376199757
-0.00033886025335839065
-0.0002949185207728902
-0.0002456922657092677
-0.00019774708004111817
-0.00015462843982817998
-0.0001178774076156289
-8.779978506011093e-05
-6.399645555216206e-05
-4.570715377667258e-05
-3.202737901161591e-05
-2.2044486980110196e-05
-1.492061762507596e-05
-9.936622399811499e-06
-6.5031287259029705e-06
-4.132873472755177e-06
-2.319312110520213e-06
-1.0200655288869857e-07
5.128430801706677e-11
4.240776379511826e-08
2.747488032762207e-07
1.109614380277097e-06
3.4959290753051648e-06
9.34276465596307e-06
2.211297089777287e-05
4.7578812173944964e-05
9.469812611526432e-05
0.0001765343245158723
0.00031111399460173833
0.0005220986752658022
0.0008391472654882845
0.0012978640060963395
0.001939262125543937
0.002808720126158622
0.003954459471690332
0.005425621754957448
0.007270063723272203
0.00953201510461938
0.012249754687389307
0.015453454686428265
0.01916332428542083
0.023388154027804336
0.02812432777406556
0.033355332572686115
0.039051762745533396
0.045171785567464796
0.05166201383747331
0.05845871605146944
0.06548928755708953
0.0726739051027013
0.07992729128911627
0.08716052313414248
0.0942828288389034
0.10120332764052047
0.10783267833496542
0.1140846119192698
0.11987733236301162
0.12513477653575925
0.12978772973361052
0.1337747971384834
0.13704323406455723
0.13954963919435198
0.14126051538944967
0.14215270227499913
0.14221368381997143
0.1414417727226113
0.1398461717025356
0.13744690993047162
0.1342746509286789
0.13037036649123646
0.12578486964830732
0.12057819856739958
0.11481884265715353
0.10858280209533115
0.10195247262587019
0.09501534894424708
0.0878625427705577
0.08058711672203782
0.07328224385382459
0.06603921716913379
0.05894535519468227
0.0520818790772606
0.04552187071090379
0.0393284529332021
0.03355335035898775
0.02823597966233755
0.02340317102357538
0.019069537678903594
0.015238402478128443
0.01190308839299998
0.009048320875563206
0.0066515040816556995
0.004683727916296715
0.0031105138909732453
0.001892461289022673
0.0009860473242327937
0.00034481956676790497
-7.890893354588335e-05
-0.0003319479696610341
-0.00045797684962267015
-0.00049552861096312
-0.00047656823175686806
-0.0004258816262375175
-0.00036129195489862086
-0.00029453411918601587
-0.0002325076759581277
-0.00017861551041634932
-0.00013396280017552467
-9.829571943532449e-05
-7.065789906116674e-05
-4.9807037554224344e-05
-3.4458421254502216e-05
-2.341701028490123e-05
-1.5641071482069153e-05
-1.0258804237692194e-05
-6.530446201934478e-06
-3.6663641009526744e-06
-1.604426458224393e-07
2.153836825414203e-10
1.0789188261719078e-07
6.465469918787154e-07
2.463476447259651e-06
7.401418739374894e-06
1.8992109228623153e-05
4.33680413499383e-05
9.034702331270238e-05
0.0001745955279949324
0.0003167343054909373
0.000544223327853126
0.0008918600899080633
0.0014017483430561646
0.0021226411581644787
0.003108626010219561
0.004417190670632904
0.006106776544044286
0.008233981284782664
0.010850608313409399
0.014000773933060538
0.017718273366837907
0.022024378443874875
0.026926197144791
0.03241567502439397
0.03846926684028993
0.045048258842805965
0.05209968206844577
0.05955772700447707
0.06734555102787657
0.07537736167266901
0.08356065972277253
0.09179853447628962
0.09999191716576777
0.1080417153713054
0.11585076948345766
0.12332559035570163
0.13037785411076183
0.13692564488530792
0.1428944486985079
0.14821791146509317
0.15283838149560824
0.15670726182080946
0.15978520060369605
0.16204214904877062
0.16345731586298842
0.16401904571318993
0.16372464646046034
0.16258018638086344
0.16060027820371167
0.15780786167574534
0.1542339905385696
0.1499176233456432
0.1449054105482892
0.13925146293359475
0.13301707909877766
0.126270402625115
0.11908597353203229
0.11154413413941953
0.10373024746863205
0.09573368776592914
0.08764656887566907
0.0795621885626472
0.07157318722564422
0.06376944925385342
0.05623581482495156
0.04904971679579391
0.04227890483250577
0.03597945553296827
0.030194278023806004
0.024952295181334964
0.02026840448825356
0.016144207055717983
0.01256936335929331
0.009523328009583453
0.006977172841973709
0.004895251205635151
0.0032365793259531983
0.0019559715573782715
0.0010051020770196427
0.0003337168976845068
-0.00010884033707171725
-0.0003717770977805765
-0.0005008445792537935
-0.0005364764887487478
-0.0005124039514799514
-0.0004549869914451292
-0.00038333381538507995
-0.0003100969611742905
-0.000242704953770241
-0.00018474507131101926
-0.0001372538573944799
-9.976404430859339e-05
-7.105694368048338e-05
-4.964527400780015e-05
-3.4049411750078625e-05
-2.2934063882823328e-05
-1.5152754163339454e-05
-9.70267783531062e-06
-5.46473617747311e-06
-2.3853288633634185e-07
7.159420867637977e-10
2.579902873633489e-07
1.443373074475626e-06
5.215992020615197e-06
1.499744449820753e-05
3.704730947360131e-05
8.178569359901997e-05
0.0001652534555473937
0.00031054118641219146
0.0005489782653489884
0.0009208645974599848
0.001475554561531819
0.00227076250983012
0.0033710426220111677
0.004845489534486419
0.0067647952227825785
0.009197869076340858
0.012208272842481044
0.015850736032693904
0.020168001429584727
0.02518820960076042
0.03092297359593349
0.03736622910963764
0.044493879751449916
0.05226419858382096
0.060618900533533436
0.0694847681209675
0.07877569554068782
0.08839501216058783
0.09823795356364819
0.10819416335325169
0.118150129011712
0.12799147734605967
0.13760507717666157
0.14688091722572047
0.155713744553851
0.16400446282739123
0.17166130007126915
0.1786007625890725
0.1847483958374836
0.19003937475715246
0.1944189459440193
0.1978427426212754
0.2002769911029447
0.20169862469955943
0.20209531808658457
0.20146545222973308
0.1998180171500292
0.1971724571578243
0.19355846067447527
0.1890156943352717
0.18359347864146283
0.17735039990735146
0.1703538505483266
0.1626794868377207
0.15441059015982142
0.14563731464657192
0.1364558011873484
0.12696713558809156
0.11727612776125697
0.10748989011747642
0.09771619796589225
0.08806162422768832
0.07862945694278224
0.06951743268684034
0.060815353051646225
0.05260269350786833
0.04494635917288681
0.037898780234214335
0.031496556690786846
0.025759842326155913
0.020692591191305544
0.016283678488390005
0.01250877108104106
0.009332696446768186
0.006711984613396809
0.0045972673307800365
0.0029353175794890655
0.0016706708503590971
0.0007469299727800113
0.00010795426189069288
-0.00030086969962272493
-0.0005311823925818669
-0.0006300959015099097
-0.0006387355593261676
-0.0005911478603577656
-0.0005137999474055659
-0.0004257661093655901
-0.00033953537380193983
-0.0002622431608422336
-0.00019707067853462558
-0.0001445756012777955
-0.00010379324837772213
-7.304126308164544e-05
-5.04389945021473e-05
-3.419664625038948e-05
-2.2733087346479785e-05
-1.463244467343165e-05
-8.264076980909365e-06
-3.593511853541001e-07
2.0681340141083545e-09
5.832749847101519e-07
3.0686211208037607e-06
1.05628634038927e-05
2.9151050836314775e-05
6.947368719488852e-05
0.00014852539869318474
0.0002914709510561314
0.0005332133635908955
0.0009194292951686403
0.0015068157791476157
0.002362367174004561
0.0035616097461958376
0.005185845135299452
0.00731857259446621
0.010041355162385144
0.013429454126734209
0.017547573735990526
0.022446035655307863
0.028157647424974185
0.0346954520387305
0.042051458835103875
0.05019637050045329
0.05908024614986947
0.06863398215912123
0.07877145346647439
0.08939213844242772
0.10038404800799484
0.11162679100609454
0.1229946288584298
0.13435939927894414
0.14559321775226125
0.15657089383825953
0.16717202516357166
0.17728275401636492
0.1867971892437769
0.19561850964254174
0.2036597745626523
0.2108444735456925
0.21710685011404007
0.22239203593344445
0.22665603104953183
0.22986556421729468
0.23199786486631935
0.2330403752346318
0.232990427827811
0.23185490970398392
0.22964993117138566
0.2264005122869317
0.22214029600421126
0.21691129186721347
0.2107636487192883
0.20375544896407286
0.195952510503498
0.1874281757036335
0.17826305983818097
0.16854472481568422
0.15836723815884027
0.14783057288630388
0.13703980200622284
0.12610404272903092
0.1151351112723602
0.10424586033018654
0.09354818900229568
0.08315074028121668
0.07315633484184686
0.06365923175786757
0.05474235480802512
0.046474671845438506
0.03890895453537827
0.03208016283464295
0.026004677813200663
0.02068053693520639
0.01608870806106347
0.012195289261781777
0.008954374957664026
0.006311227728141069
0.004205375954436486
0.0025733335183776604
0.00135078850428226
0.0004742819862656739
-0.00011746803424181211
-0.0004823977171290815
-0.0006739400218076493
-0.0007398610559244001
-0.0007212058856396432
-0.0006515487226083967
-0.000556732226793529
-0.00045518789141015887
-0.00035879602203608334
-0.000274124455446435
-0.00020382199625958739
-0.0001479491205014762
-0.00010508945840389439
-7.316892193823004e-05
-4.998186921128156e-05
-3.345815389583803e-05
-2.1663406206865774e-05
-1.227477454699373e-05
-5.318826737663178e-07
5.397529042928472e-09
1.2528190713141553e-06
6.2338353946302634e-06
2.0513620439897563e-05
5.4477321091300535e-05
0.0001255024495576252
0.0002602362597874366
0.0004966447859405469
0.0008854650055336021
0.001490718882397034
0.002389039122320721
0.0036676958330403566
0.0054213757931063445
0.0077479232387962895
0.010743377476792597
0.014496720462432527
0.01908476912190137
0.024567615076040078
0.0309849390086298
0.03835342355665085
0.046665374112102385
0.05588854670289515
0.06596708808993142
0.0768234228581325
0.08836087858036318
0.10046682224666485
0.11301608544010111
0.12587447694668663
0.13890221380200443
0.15195713968614502
0.16489763842131042
0.17758518658492717
0.18988652060960254
0.2016754189827599
0.21283411896524995
0.223254399961212
0.23283837305626265
0.24149901928170417
0.24916051890099103
0.2557584114384051
0.26123962214160434
0.26556238579420693
0.26869609381071974
0.2706210857369516
0.2713284018902821
0.2708195100371154
0.2691060157574789
0.266209363452278
0.26216053270938106
0.2569997328123342
0.2507760963597638
0.24354737104134155
0.2353796063452593
0.226346829112765
0.21653069820340004
0.20602012396831132
0.19491083276676704
0.18330485062573199
0.171309873820708
0.15903848843745472
0.14660719695446808
0.13413520892548042
0.12174295647914674
0.10955030518976028
0.09767444842496033
0.08622749977849191
0.07531383426504953
0.06502727399044428
0.055448265258637254
0.04664124548570988
0.038652439687473075
0.03150834380070684
0.025215130672082135
0.019759143206345163
0.015108517596102045
0.011215823634115402
0.008021451578349588
0.005457358627563252
0.003450751384714732
0.0019273415603854535
0.0008139561316111098
4.0464374409588664e-05
-0.00045885904259509514
-0.0007443359916701786
-0.0008700708810738592
-0.000883234756978716
-0.0008234816821932045
-0.0007226180901568949
-0.0006046602113120587
-0.00048635437974389696
-0.0003781309963108361
-0.0002853617125067301
-0.00020973041118753656
-0.0001505280368600491
-0.00010572932527090113
-7.277744993668188e-05
-4.905048572118438e-05
-3.1942513737467965e-05
-1.8156043042805137e-05
-7.836637942996776e-07
1.2995209780935562e-08
2.5667728193908133e-06
1.2136539385968709e-05
3.829672192185978e-05
9.808450758453367e-05
0.00021880326468791175
0.00044066603774051746
0.0008188007832542035
0.0014241637778823525
0.0023430140663727463
0.0036747776645172916
0.005528341898612147
0.00801702844827671
0.01125266260533471
0.015339260855059138
0.020366888270672973
0.026406194731838323
0.03350403922423011
0.041680475705523655
0.05092722526886719
0.06120761828403034
0.07245787242394655
0.08458948722863054
0.09749248614474061
0.11103922070114369
0.12508846298579193
0.13948954435771493
0.1540863424514431
0.1687209678168238
0.18323705018698452
0.19748256826513014
0.2113122036118385
0.22458922767850065
0.2371869513522448
0.24898977938038547
0.25989391897122105
0.2698077941148622
0.27865221607997964
0.28636035730073406
0.2928775714257614
0.2981610973682201
0.30217968025626035
0.3049131375275401
0.3063518941787638
0.3064965073998154
0.3053571974455721
0.30295339853451064
0.29931334069462545
0.2944736706755397
0.28847911717910224
0.28138220259751795
0.2732430000585352
0.26412893073712873
0.2541145919906979
0.24328160182576158
0.23171843947742535
0.219520255538516
0.20678861831456305
0.19363115630284938
0.1801610505488565
0.16649632605715434
0.15275888964408754
0.13907326406276432
0.12556497647048195
0.11235857486455333
0.09957527025518634
0.08733023583407408
0.07572963711430904
0.06486751739657261
0.054822717151045655
0.04565605704934799
0.037408051823618574
0.030097432213848998
0.0237207208993304
0.018253025848874803
0.013650081951572513
0.00985140574837485
0.006784261404738144
0.004368011235209016
0.0025183799362111354
0.0011512174386625023
0.0001854892304548493
-0.0004545875571857214
-0.0008381688846133199
-0.0010269690433665358
-0.001074793176342839
-0.001027272246593377
-0.000921761257687055
-0.0007874502837982815
-0.0006457703362362924
-0.000511143547961248
-0.00039205157554604017
-0.00029231588650406614
-0.0002124335897390119
-0.00015080849534916964
-0.00010474955754486682
-7.113923736966606e-05
-4.660624766130474e-05
-2.657009042755077e-05
-1.1422711369343243e-06
2.9240964719427734e-08
5.0333645441430995e-06
2.2704222663968353e-05
6.888088218085078e-05
0.00017047183630063237
0.00036880176012139354
0.0007223384510435665
0.001308186720228601
0.002221868397497975
0.0035751251040222376
0.005491753880400058
0.008101761158516142
0.011534347618838519
0.015910379198292385
0.021335041851522147
0.02789132364319488
0.0356348372881598
0.044590318596458
0.05474994295272074
0.06607342092711134
0.0784896859521364
0.09189988332378636
0.10618131362238874
0.12119197112302525
0.13677534043569228
0.15276516186093764
0.168989936994819
0.1852770114926991
0.2014561342541034
0.21736244667228083
0.23283889932286456
0.2477381257480345
0.2619238244072766
0.2752717118672392
0.2876701147757052
0.2990202670809684
0.30923637414577065
0.31824549841252253
0.3259873133173203
0.33241376410450474
0.33748866664504784
0.34118726865274984
0.343495791980594
0.34441096999531096
0.3439395903170568
0.3420980503690336
0.33891193107694334
0.33441559254317516
0.328651794436303
0.3216713430098865
0.3135327659032425
0.30430201496343273
0.29405219601773575
0.2828633225526249
0.27082208734633323
0.2580216420107833
0.24456136895361433
0.23054662344376625
0.21608841545067045
0.20130299223379497
0.18631127417545698
0.17123808938434615
0.1562111488543298
0.1413597054356852
0.12681284864959685
0.1126974053526528
0.09913544481365592
0.086241426365244
0.07411907753840599
0.06285814766872229
0.052531241019988476
0.04319098602247903
0.034867831571704325
0.027568763615758673
0.021277192295979585
0.01595416396517538
0.011540906880080993
0.007962543025190182
0.0051326253797275645
0.002958032468951389
0.0013437082870453232
0.0001967941905774467
-0.000570151381651032
-0.0010369509694428101
-0.0012745401805124511
-0.0013444237094457127
-0.0012986100836805518
-0.0011798283594712492
-0.0010219238505833684
-0.000850419554222263
-0.0006832764518503544
-0.000531876713829805
-0.0004022039737595967
-0.00029613503849701433
-0.0002127163459179099
-0.00014928553126340607
-0.00010228451484851947
-6.747562808206761e-05
-3.8600586333199965e-05
-1.6524645521837191e-06
6.204573672179811e-08
9.4754520441322e-06
4.090967086331693e-05
0.00011960247703227577
0.0002865260414440755
0.0006019999230317005
0.0011479984183284109
0.0020284572043345575
0.00336717730754151
0.005303273536284977
0.007984477761495544
0.011558913986933584
0.016166159949721273
0.021928474591245927
0.028943006090305704
0.037275627867000415
0.046956819906709676
0.05797976295195163
0.07030058140361356
0.08384048445643405
0.09848942876643794
0.11411086264706338
0.13054710497011546
0.147624949290049
0.16516115041046237
0.18296753215720044
0.20085553919111893
0.2186401331447883
0.2361429984636014
0.2531950734120356
0.2696384565456909
0.28532776000779353
0.3001309907076104
0.3139300415670617
0.32662087030024184
0.3381134349920802
0.3483314459573364
0.35721198336403115
0.36470502079396677
0.3707728867858071
0.3753896896568311
0.37854072550909734
0.38022188514410893
0.3804390724208678
0.3792076441603123
0.37655187980232613
0.3725044874673813
0.3671061517076439
0.3604051269296485
0.352456879135422
0.34332377717583096
0.3330748330504835
0.3217854888160141
0.309537445242753
0.2964185243191074
0.2825225538497076
0.26794925753679677
0.2528041279370001
0.23719825253787102
0.2212480551145495
0.20507490604955253
0.18880454739375724
0.1725662725545177
0.15649179850922557
0.14071377257333167
0.1253638682870101
0.11057044791901507
0.09645580367230189
0.08313303592044358
0.07070268293779279
0.059249278528867556
0.048838074838461476
0.039512217518207236
0.0312906867559257
0.024167306729933516
0.0181110661464679
0.013067878671297257
0.008963751077668938
0.0057091406639308935
0.0032041076828467317
0.0013437454364556962
2.3336418072452056e-05
-0.000857246705808108
-0.0013902150094854133
-0.001657721432772214
-0.0017308108392874483
-0.001669229931718734
-0.00152181556504621
-0.0013272157608743037
-0.0011147844470160123
-0.0009055824876400135
-0.0007134762915829579
-0.0005463361425026817
-0.0004073085568449834
-0.0002960929878740296
-0.0002101088915247126
-0.00014537053862734723
-9.664617317536508e-05
-5.550703850675748e-05
-2.3658363974885323e-06
1.2497481814471904e-07
1.7169777695735946e-05
7.11539892930786e-05
0.00020086844681233574
0.0004665326070306315
0.0009531408244159358
0.001771598599013812
0.003056979186854144
0.00496373334047291
0.007658161843294065
0.0113088758701739
0.016076248064618263
0.022101959445546406
0.029499675861598042
0.038347677268225654
0.04868396743996309
0.0605040694840032
0.07376141511584601
0.08836999970429629
0.10420881960229642
0.12112753589394151
0.13895280951298367
0.15749480921740852
0.17655348578278288
0.19592431360013907
0.21540330866207014
0.23479122833167057
0.25389693666803503
0.2725399768869385
0.29055243033389894
0.3077801617289815
0.32408355703198843
0.3393378569493447
0.3534331794504312
0.3662743116759382
0.37778033757852403
0.38788415410010435
0.39653191660303944
0.4036824440861577
0.4093066065293277
0.413386710393117
0.41591589359930636
0.41689753793241924
0.41634470443508487
0.41427959575844414
0.4107330483585918
0.4057440567355527
0.39935933146863306
0.3916328925158771
0.3826256990338079
0.37240531675080124
0.36104562358722314
0.3486265536168715
0.33523387842109303
0.32095902316455477
0.3058989120456912
0.2901558338556027
0.27383731295837643
0.2570559639276038
0.2399292993814568
0.2225794506091714
0.20513275016323532
0.18771911601650484
0.17047117002123963
0.1535230216170555
0.13700865366569676
0.12105986353255276
0.10580374113791055
0.09135970760290937
0.07783619254099222
0.06532709194406355
0.0539082162006726
0.04363400030483789
0.03453479421102569
0.026615067127328706
0.01985283207998948
0.014200516761999474
0.009587372122083347
0.005923332510779937
0.003104046205980277
0.0010166205992542846
-0.00045448604537645524
-0.001422011481370873
-0.0019913706045441904
-0.002257387537662387
-0.0023023714834583737
-0.0021954177897368023
-0.001992668307129674
-0.0017382091470152545
-0.0014653144446768118
-0.001197829583911032
-0.0009515829618879783
-0.0007357852365205042
-0.0005544019633036796
-0.00040747179940561946
-0.0002922935826624207
-0.00020428798262949716
-0.0001369607259155722
-7.901461651989251e-05
-3.352410368636898e-06
2.401963859947339e-07
3.0018483854749964e-05
0.00011970111382375329
0.0003268781977423347
0.0007370776228055398
0.0014660060548904736
0.0026585238102436745
0.00448387126444375
0.007127407523967167
0.010779685401069534
0.015624080846657213
0.021824359544705425
0.02951349463453681
0.03878479089187368
0.04968599411795168
0.06221664975960007
0.07632859216725343
0.09192914510294074
0.10888642033161736
0.12703601691497612
0.14618843466330236
0.1661365965676945
0.1866629991121696
0.20754615025162731
0.22856609182557203
0.249508922132723
0.27017032769525595
0.29035819873528623
0.3098944423838424
0.328616125377672
0.3463760792740577
0.3630430913776595
0.3785017883583714
0.3926523007156944
0.40540977752544183
0.41670380401333634
0.4264777603397741
0.43468814883263646
0.44130390863114166
0.44630573091459247
0.44968538408296643
0.45144505591196255
0.45159671834851983
0.45016151984848024
0.4471692096827277
0.44265759824047807
0.4366720569086528
0.4292650605418189
0.42049577484429357
0.41042969018092257
0.3991383024413089
0.3866988406177047
0.3731940397002693
0.35871195627244934
0.34334582266184044
0.3271939334486782
0.31035955526444614
0.2929508467937566
0.2750807704043877
0.256866969658544
0.2384315781161284
0.21990091471381634
0.20140501049587534
0.18307690211433297
0.16505162149030966
0.147464811064604
0.13045090316372468
0.1141408229787855
0.09865920950705662
0.08412119804059297
0.07062886970213311
0.05826754364896963
0.04710215830885876
0.03717404875101343
0.028498465011090126
0.021063176988213125
0.014828463268811595
0.0097286772287154
0.00567542705047999
0.002562213005279107
0.0002701653517567082
-0.0013256408807394246
-0.0023499117999698413
-0.0029215107156631117
-0.0031489781345423965
-0.003127489074018747
-0.002937303156961029
-0.0026435450304050485
-0.002297003905528188
-0.0019355861114679286
-0.001586087117079534
-0.0012660377980206307
-0.0009854815902979477
-0.0007486180952998641
-0.0005552823804980002
-0.0004021998577713063
-0.0002838023177996964
-0.00019184763843771668
-0.0001111786270111435