# vtk DataFile Version 4.1 
COMMENT
ASCII
DATASET STRUCTURED_POINTS 
DIMENSIONS 100 100 1 
ORIGIN 0 0 0
SPACING 0.12693303650867893 0.12693303650867893 0 
POINT_DATA 10000
SCALARS U double 1
LOOKUP_TABLE default
0.0
0.0
0.0
0.0
0.0
0.0
0.0
0.0
0.0
0.0
0.0
0.0
0.0
0.0
0.0
0.0
0.0
0.0
0.0
0.0
0.0
0.0
0.0
0.0
0.0
0.0
0.0
0.0
0.0
0.0
0.0
0.0
0.0
0.0
0.0
0.0
0.0
0.0
0.0
0.0
0.0
0.0
0.0
0.0
0.0
0.0
0.0
0.0
0.0
0.0
0.0
0.0
0.0
0.0
0.0
0.0
0.0
0.0
0.0
0.0
0.0
0.0
0.0
0.0
0.0
0.0
0.0
0.0
0.0
0.0
0.0
0.0
0.0
0.0
0.0
0.0
0.0
0.0
0.0
0.0
0.0
0.0
0.0
0.0
0.0
0.0
0.0
0.0
0.0
0.0
0.0
0.0
0.0
0.0
0.0
0.0
0.0
0.0
0.0
0.0
-1.5577117675340017e-13
7.640348120581709e-11
7.93484468931444e-10
4.253355355413404e-09
1.634525957513293e-08
5.064632915784119e-08
1.3406664238063247e-07
3.1345395083359866e-07
6.609469827534335e-07
1.2739816580020883e-06
2.263788398197743e-06
3.7244080294779414e-06
5.6732219744616936e-06
7.954237262062223e-06
1.009723786378857e-05
1.1129510802305916e-05
9.341974685219031e-06
2.017680798033605e-06
-1.4862902721250291e-05
-4.6919512279305784e-05
-0.00010164775789324324
-0.00018864545352081775
-0.00031976212680202474
-0.0005091466777133202
-0.0007731729640399427
-0.0011302298066950837
-0.0016003698947049303
-0.0022048206011666023
-0.0029653680723743443
-0.0039036334798455545
-0.005040266528011269
-0.006394085862410758
-0.007981198780117283
-0.0098141336296222
-0.011901017663345798
-0.014244831133006378
-0.016842765413692777
-0.019685709240876145
-0.022757883062573748
-0.026036637319348483
-0.029492426378657476
-0.03308896600590014
-0.03678357871548985
-0.040527728101327834
-0.04426774022062485
-0.04794570716517403
-0.05150056492371226
-0.05486933431433211
-0.05798850993498561
-0.0607955775445149
-0.06323063488664121
-0.06523808461114144
-0.06676836063018471
-0.06777964109443864
-0.06823949245006732
-0.06812638018253107
-0.06743097350742734
-0.06615716432309192
-0.06432271640107982
-0.06195946065887321
-0.059112958470725764
-0.05584156972114021
-0.05221488811325946
-0.04831154486790732
-0.04421643340543591
-0.04001746891537022
-0.03580206095506898
-0.03165353349381148
-0.02764776188529054
-0.023850297817387987
-0.020314214380746674
-0.01707882621256938
-0.014169336958033229
-0.011597358889504807
-0.0093621602318009
-0.00745244161839149
-0.005848429559244867
-0.004524094438463385
-0.003449337565716121
-0.0025920298032817888
-0.0019198136006390607
-0.0014016008138285818
-0.0010087173049571976
-0.0007156695093503605
-0.000500540269109761
-0.00034505649771947636
-0.00023440049657072283
-0.0001568516928483607
-0.00010334319171533911
-6.700120899953498e-05
-4.27126160819966e-05
-2.6744111903620617e-05
-1.6420680908630598e-05
-9.861980014048587e-06
-5.771445947336015e-06
-3.271762041226831e-06
-1.7799335790893027e-06
-9.13873105743189e-07
-4.137721123777219e-07
-1.8051608678436005e-08
-3.393480230600687e-13
2.8232169326628374e-10
2.4336621373510154e-09
1.1718855113972537e-08
4.172514321109108e-08
1.2186284317956585e-07
3.076363671901762e-07
6.922885335414499e-07
1.4166319526942354e-06
2.671913632345509e-06
4.688885965113606e-06
7.705417152230571e-06
1.1905432914788025e-05
1.732399810667045e-05
2.371688088899411e-05
3.0397629573617235e-05
3.605039907317969e-05
3.853170187639211e-05
3.467813482757809e-05
2.013929841993009e-05
-1.0744811671004189e-05
-6.500477456828676e-05
-0.00015102795812986178
-0.0002784623431664064
-0.0004580365789622106
-0.0007013011981297138
-0.0010203016106154516
-0.0014271980399794323
-0.001933850612779869
-0.0025513892209961114
-0.0032897875966087695
-0.004157459472077347
-0.005160892064298557
-0.006304328782851568
-0.007589509404270423
-0.009015472320183649
-0.010578420147816063
-0.012271647202947808
-0.01408552521732669
-0.016007542301471906
-0.01802238951388011
-0.0201120894529232
-0.022256161955111205
-0.024431823153807503
-0.02661421569926052
-0.028776669724906886
-0.03089099601715397
-0.032927814647388164
-0.034856923887119994
-0.03664771537289005
-0.038269642035728135
-0.039692745083547365
-0.04088824516126858
-0.041829200572725884
-0.04249123201184706
-0.04285330850236062
-0.04289858303447088
-0.04261525848468755
-0.041997454496175236
-0.04104603377563989
-0.03976933171051012
-0.0381837170996774
-0.036313896343990466
-0.034192862888231056
-0.031861394296738094
-0.02936701832267003
-0.026762412565391573
-0.0241032709120941
-0.021445757007070246
-0.018843754170390217
-0.016346189084935528
-0.013994729211584072
-0.011822115986236802
-0.009851299095801921
-0.008095403112536162
-0.006558422608082409
-0.005236443482101728
-0.004119151304789804
-0.003191413342402069
-0.002434787957647483
-0.0018288896187148354
-0.0013525903763812203
-0.0009850569648304764
-0.0007066141828184858
-0.0004994097018661804
-0.00034785196410848856
-0.00023880920178414707
-0.00016158797655762335
-0.00010774005171482027
-7.07638903237078e-05
-4.576634270851394e-05
-2.9134734800427426e-05
-1.8248277973586337e-05
-1.12388952059118e-05
-6.799677814231602e-06
-4.0342520737122604e-06
-2.3394636897282236e-06
-1.3123763353327484e-06
-6.596220390750342e-07
-2.9120375389857716e-08
-3.8385649241099965e-13
9.836962629816485e-10
7.526606641521036e-09
3.369297776548444e-08
1.138121266107461e-07
3.1905239289118765e-07
7.791169190882942e-07
1.7057208591684782e-06
3.4111234500135068e-06
6.311499838765157e-06
1.090219629640681e-05
1.7690798286573287e-05
2.7075141577452508e-05
3.91572178407595e-05
5.349018626687959e-05
6.876373884872959e-05
8.244184842935759e-05
9.037524522572125e-05
8.64176467454806e-05
6.207886992565394e-05
6.248919297696263e-06
-9.497515666247643e-05
-0.00025833312603472803
-0.0005032972602545452
-0.0008518100843527131
-0.0013278641340736445
-0.001956933067198798
-0.002765271837451604
-0.0037791104185996042
-0.005023770450150131
-0.006522737067899282
-0.008296719171615053
-0.010362730697416585
-0.012733223422734226
-0.015415298797556359
-0.018410022628283253
-0.02171186247088684
-0.02530826359791073
-0.029179375605931753
-0.03329793827631847
-0.03762933227693145
-0.0421317977198699
-0.04675682144084305
-0.051449692063049154
-0.05615022033651446
-0.06079362075273379
-0.06531154884571251
-0.06963328670304249
-0.07368706680837699
-0.07740152120072227
-0.08070723886442614
-0.08353840910287781
-0.08583452233875231
-0.0875420924174212
-0.08861635638056295
-0.0890228994101464
-0.08873914508785755
-0.08775564534810588
-0.08607710161283628
-0.0837230493745743
-0.08072814308455888
-0.07714198588480817
-0.07302845806008218
-0.0684645076356424
-0.0635383761083499
-0.05834724427893778
-0.05299430321242122
-0.04758529132261018
-0.04222459706419971
-0.037011107951932465
-0.03203407959808855
-0.027369379443091965
-0.0230764970252218
-0.019196677059319066
-0.015752411207282005
-0.012748334548369026
-0.010173356512096037
-0.008003671814505522
-0.006206196717613912
-0.004741983957068779
-0.0035692722753341744
-0.002645978792940933
-0.0019315890635538745
-0.0013884986834214116
-0.0009828984580204643
-0.0006852871514813786
-0.00047067079057220364
-0.00031849080259429516
-0.00021232506083438898
-0.00013942036295412015
-9.012837017817299e-05
-5.7318449813676496e-05
-3.582753557969745e-05
-2.1984434345528777e-05
-1.3222591570938584e-05
-7.777847811491149e-06
-4.457951404617948e-06
-2.4638147422457017e-06
-1.2184076891376283e-06
-5.353843703572063e-08
1.2889448337734063e-12
3.1145399076382737e-09
2.153152721278339e-08
9.006527668822883e-08
2.889399651405506e-07
7.769089648501077e-07
1.832292605461991e-06
3.894965123655992e-06
7.597245516165413e-06
1.3767302591133953e-05
2.33864143368092e-05
3.748232750333938e-05
5.6945584677682244e-05
8.226381214283377e-05
0.00011317962631478939
0.00014828947498883078
0.00018461156547887976
0.0002171593122285781
0.00023856113330233354
0.00023876723411953382
0.0002048792418059586
0.000121129855006119
-3.097179038757285e-05
-0.00027232613614599675
-0.0006257703499586677
-0.0011154675679042954
-0.0017661879608116414
-0.0026025170873169978
-0.003648029503790218
-0.004924465054442864
-0.00645094211506373
-0.008243236942133166
-0.010313151896678776
-0.012667988372930624
-0.015310133395349267
-0.01823676256653764
-0.021439656727934093
-0.024905125571050245
-0.028614028618973192
-0.032541882490266835
-0.03665904308424746
-0.04093095215588985
-0.04531843951344439
-0.04977807458616009
-0.05426256417755873
-0.058721196638968715
-0.0631003362559725
-0.0673439751060291
-0.07139435275683811
-0.07519265662516018
-0.0786798172407511
-0.08179741263362729
-0.08448869410686907
-0.08669974127703058
-0.08838074702136825
-0.08948742259908542
-0.08998249977296202
-0.08983729079995606
-0.0890332498427863
-0.08756346242284707
-0.08543397507835812
-0.08266486736918138
-0.07929096400289459
-0.0753620861805299
-0.07094274722870501
-0.06611120704434896
-0.06095781332959604
-0.05558257900152438
-0.050091982450317846
-0.04459504014480296
-0.03919879538252399
-0.03400348775890416
-0.029097793846221052
-0.02455462373768764
-0.020427977825356426
-0.016751282050663417
-0.01353742563074945
-0.010780458887437689
-0.008458637652207189
-0.006538300839954041
-0.004977994231070687
-0.003732317761606176
-0.002755139849461826
-0.0020020246433585247
-0.0014318902572463214
-0.0010080177485123957
-0.0006985583272183524
-0.00047666535354393776
-0.000320342667882038
-0.00021207675991335547
-0.00013831416084365621
-8.88494432827576e-05
-5.619090954985577e-05
-3.496262279380321e-05
-2.1383149050476732e-05
-1.28390875779837e-05
-7.550968864196626e-06
-4.308499596772854e-06
-2.2018921131858557e-06
-9.648392703360172e-08
1.1022378789733173e-11
9.11275690257491e-09
5.782611361951293e-08
2.2773396424492524e-07
6.969939393600337e-07
1.8028160701384731e-06
4.114278043552834e-06
8.501421896744983e-06
1.617924788012686e-05
2.870014820826911e-05
4.7867337953617816e-05
7.55460595313788e-05
0.0001133588238371645
0.00016226464069277343
0.00022203810108503995
0.00029067982291273395
0.00036380269312001704
0.00043404655150059703
0.0004905763039484051
0.0005187147218730985
0.0004997520758726794
0.0004109616492655004
0.00022583485280313164
-8.546603942845548e-05
-0.0005554539463372274
-0.0012184901533348323
-0.0021098215496371483
-0.003264523930909233
-0.004716395006605844
-0.006496839440063686
-0.008633784651195554
-0.01115066096413293
-0.014065473700452174
-0.017389988625711953
-0.02112904624391815
-0.025280015146480952
-0.029832390165222412
-0.034767537539377606
-0.040058586677317334
-0.04567046630214825
-0.05156008170299547
-0.057676629336877124
-0.06396204500008593
-0.07035158207644775
-0.07677451684297991
-0.08315497834779703
-0.0894129008493763
-0.0954650970955648
-0.10122645068874833
-0.1066112252748363
-0.11153448712550489
-0.11591363563971949
-0.11967003312127364
-0.12273072061521363
-0.12503020032425124
-0.12651225694004603
-0.12713178001557293
-0.12685653745356146
-0.12566883692417471
-0.12356699879799114
-0.12056655290171708
-0.11670106448078979
-0.11202249458141454
-0.1066010082216277
-0.10052416009869844
-0.09389540995246026
-0.08683194430580314
-0.07946180472419206
-0.07192034470615656
-0.06434606299909491
-0.05687590091449906
-0.04964015643037812
-0.04275726280334719
-0.036328792705593055
-0.030435149623936727
-0.025132451563077893
-0.020451055399421353
-0.01639599470324776
-0.012949330882576654
-0.010074109710302002
-0.0077193578142988
-0.005825421999649674
-0.004328983034331354
-0.0031672444024851906
-0.0022810402143447674
-0.0016168440953979785
-0.0011278294102200139
-0.0007742063350642195
-0.0005230577784497745
-0.0003478506469592912
-0.00022774785663129548
-0.00014681053743180794
-9.316138603405632e-05
-5.817027297552419e-05
-3.571216656704098e-05
-2.1530643553417858e-05
-1.2717825145639994e-05
-7.2884696823439425e-06
-3.7367332315174525e-06
-1.633477261078699e-07
4.9635365902401324e-11
2.4854540269959514e-08
1.4637912506682735e-07
5.457482366845719e-07
1.5985860058319553e-06
3.985479146744592e-06
8.811971232761173e-06
1.7711832190322018e-05
3.289830386557471e-05
5.71241694841777e-05
9.351491574533428e-05
0.00014525049819454815
0.0002150891012278189
0.00030474812700740115
0.0004141798782389717
0.0005407983216725312
0.0006787258616539554
0.000818133319684968
0.0009447418374573206
0.0010395431009560024
0.0010787760975426819
0.0010341771670311817
0.0008734981360647737
0.0005612672994601943
5.9751821972480516e-05
-0.0006699310628740443
-0.0016666124727170624
-0.0029678389623173577
-0.004608663529939651
-0.006620508623381933
-0.009030139833265203
-0.011858778491124017
-0.015121370841904846
-0.018826021632814587
-0.02297359142367387
-0.027557450027449887
-0.03256337338937323
-0.03796956791063111
-0.04374680460833766
-0.04985864539669523
-0.0562617449578464
-0.06290621391751654
-0.06973603213012854
-0.07668950460720726
-0.08369975680638249
-0.09069527046439878
-0.09760046573752179
-0.10433633992624503
-0.11082117729818258
-0.11697134822413863
-0.1227022186795545
-0.1279291927242139
-0.13256891035127485
-0.13654062049719456
-0.1397677433666894
-0.1421796268806685
-0.14371348841581094
-0.1443165147286624
-0.14394807016222608
-0.14258193677342534
-0.1402084817702674
-0.13683662068495678
-0.1324954232274743
-0.12723519754344367
-0.1211278919517544
-0.11426667358797495
-0.10676458000370954
-0.09875218845057109
-0.09037430187782976
-0.0817857049021891
-0.0731460957548384
-0.06461435630433063
-0.056342390811939355
-0.04846885179014671
-0.04111317310322372
-0.034370422505865354
-0.028307527374904412
-0.022961373876812675
-0.018339104482376696
-0.014420652948452595
-0.011163216041992094
-0.008507055135430076
-0.006381836149204019
-0.004712705594024122
-0.0034254586786660215
-0.0024504229680454405
-0.0017249699943987747
-0.0011947976756691838
-0.0008142548311316372
-0.0005460063545372559
-0.0003602965924593333
-0.00023400142025457898
-0.00014959823415479449
-9.414060908331646e-05
-5.829818312091504e-05
-3.550310716563837e-05
-2.1221928846109753e-05
-1.2327284985170642e-05
-6.397233935079288e-06
-2.78665624105098e-07
1.7666137832682852e-10
6.363078365022189e-08
3.507646845952459e-07
1.2437157168252243e-06
3.496532053984392e-06
8.418131440635062e-06
1.805502326252668e-05
3.532802862876314e-05
6.406832642229456e-05
0.00010889894428154124
0.0001749198971325452
0.00026717748163190803
0.00038992733624002794
0.0005457318122499714
0.0007344596241497099
0.0009522750746050422
0.0011907124266880562
0.001435927321766757
0.0016682026142908254
0.0018617632798166388
0.001984927723136286
0.0020005946403544956
0.0018670389264191813
0.0015389694792554644
0.0009687875983636705
0.00010797743143301117
-0.001091440874758456
-0.0026754601080249017
-0.0046866933390184995
-0.007163085194198211
-0.010136760816473748
-0.013633034789696626
-0.01766959195052361
-0.0222558433414164
-0.027392453826506635
-0.0330710331149725
-0.039273978960790525
-0.04597445987436946
-0.05313652448369957
-0.06071532540977509
-0.068657446890218
-0.07690132715919024
-0.0853777685875059
-0.0940105306745353
-0.10271700308063406
-0.1114089579505068
-0.11999338278386519
-0.12837339704940762
-0.13644925759351864
-0.14411945962109485
-0.15128194152831922
-0.15783540297821974
-0.16368074606310584
-0.16872264880572868
-0.17287127808919542
-0.17604414471516838
-0.1781680959065637
-0.17918142940208473
-0.17903609765815737
-0.17769995024888305
-0.17515893767798466
-0.17141917188518455
-0.16650871053704622
-0.1604789080471685
-0.1534051616531362
-0.1453868814581539
-0.13654653340330242
-0.12702764480697154
-0.11699172027752294
-0.10661408458527885
-0.09607874031006156
-0.08557239618254263
-0.07527788721278321
-0.06536727582756131
-0.055995000831650085
-0.04729152635708911
-0.03935801802056505
-0.03226260281750128
-0.026038710295473572
-0.02068581580849841
-0.016172617266203726
-0.012442324969750371
-0.009419415693843027
-0.007016989649223669
-0.005143835010510258
-0.003710455586140509
-0.002633599965854564
-0.0018391554717054753
-0.0012635476691580283
-0.0008539585120086885
-0.0005677320640698561
-0.0003713033651882739
-0.00023890778592205826
-0.00015124472567899455
-9.420284982785715e-05
-5.770759828647418e-05
-3.471367263111056e-05
-2.0299510796710627e-05
-1.059009247636077e-05
-4.59865220461988e-07
5.454404311605235e-10
1.5375107356511602e-07
7.98590956054542e-07
2.703136008381437e-06
7.311698698248006e-06
1.702765265156629e-05
3.546751181424854e-05
6.761239252344605e-05
0.00011977888565442414
0.00019934304183503518
0.0003141783752715103
0.00047180729804995996
0.0006783083700455148
0.000937061423300619
0.0012474420645854631
0.0016035915723843345
0.0019933860350193847
0.002397710932179857
0.002790117810653402
0.0031369032193376734
0.0033976119792859306
0.0035259319486959768
0.0034709192923164534
0.003178473986371018
0.002592975509988561
0.0016589877705116176
0.00032294877551859827
-0.0014652275953101136
-0.0037506952685251787
-0.006572406262647502
-0.009962052669593036
-0.013943230867211994
-0.018530826217510486
-0.02373060686264866
-0.029539008281778995
-0.0359430858492094
-0.042920610434654796
-0.05044028174164192
-0.058462035213391154
-0.06693742059763652
-0.07581003335304938
-0.08501598375825554
-0.09448439266496025
-0.10413790718454036
-0.11389323411671473
-0.12366169354941638
-0.13334979972140704
-0.14285988087885226
-0.1520907543863591
-0.16093847764188485
-0.1692971992001962
-0.17706013765274942
-0.18412071785855827
-0.19037389456361012
-0.19571769164837474
-0.20005498044505496
-0.20329551192163078
-0.2053582041732904
-0.20617366782895719
-0.20568692719095283
-0.20386026424503498
-0.20067607705771975
-0.1961396057403685
-0.19028134193021592
-0.18315890714472685
-0.1748581682583478
-0.16549336183406682
-0.15520602869757372
-0.14416261792436408
-0.13255070204640523
-0.12057384422189685
-0.10844526171124146
-0.0963805276072827
-0.08458963882777057
-0.07326885390447997
-0.06259277333223727
-0.05270719789393609
-0.043723343391732665
-0.035713985059360895
-0.028712015399123415
-0.022711699297157172
-0.017672604910824244
-0.013525825422343565
-0.010181768337403252
-0.007538567767388446
-0.005490136755058485
-0.003933032370133895
-0.002771606779532155
-0.0019212727636072594
-0.0013100268771478701
-0.0008785810762589256
-0.0005795338998375075
-0.00037598720025663245
-0.00023992862730614237
-0.0001505979283198924
-9.296415412570393e-05
-5.636195137710691e-05
-3.321914362040539e-05
-1.743458009130152e-05
-7.542862454338462e-07
1.5184025076325066e-09
3.522411075379372e-07
1.733110047243177e-06
5.618256414182014e-06
1.4652681582968158e-05
3.305738888672236e-05
6.694389949838422e-05
0.00012442810961440213
0.0002154426251863134
0.00035117817590827726
0.0005431343871597861
0.0008018188662437351
0.0011351900990068994
0.0015469836907548286
0.0020350856488247394
0.0025901175546401353
0.003194377833382037
0.003821245667671532
0.004435106335400899
0.004991806390893385
0.005439600892979362
0.005720517843443746
0.005772040016847071
0.005528992194035017
0.0049255214467926
0.0038970673309058524
0.002382234771986584
0.0003245021139990048
-0.0023262824177510775
-0.005612642828970164
-0.009568465772628596
-0.014218235072343467
-0.0195764958581244
-0.025647527021226902
-0.03242519698741811
-0.03989297663000277
-0.04802408388500789
-0.056781736707553404
-0.06611949391262635
-0.07598166676740584
-0.08630378764517735
-0.09701312541359576
-0.10802924040261497
-0.11926457474325065
-0.13062507660801637
-0.14201085947934994
-0.1533169001121261
-0.1644337814406713
-0.17524848940511742
-0.18564527560764368
-0.19550660087800417
-0.20471417817055296
-0.21315013655345516
-0.22069833104450753
-0.22724582515232125
-0.23268457341482365
-0.23691332896021175
-0.2398397949020568
-0.2413830268447445
-0.24147607558208717
-0.24006883319145741
-0.23713101180869442
-0.23265514321452915
-0.22665944142824546
-0.21919032433121757
-0.21032435069685465
-0.2001693044467993
-0.18886415761592654
-0.17657767501995228
-0.16350549057325217
-0.14986558502251954
-0.1358922182032354
-0.12182850151368488
-0.1079179230151368
-0.0943952471787559
-0.08147729914985788
-0.06935420965541547
-0.058181740067493805
-0.048075317389097504
-0.039106363621997396
-0.031301374605204435
-0.024643970952428717
-0.019079817244523924
-0.01452393320904359
-0.010869583116512486
-0.007997716147668503
-0.005785904531107617
-0.004115898433518238
-0.0028792379940238517
-0.001980743098274286
-0.00134004270240805
-0.0008915366768602672
-0.0005832789400252548
-0.0003752495733364407
-0.00023738953586460986
-0.0001476489825105636
-9.01672831232341e-05
-5.3500319550893294e-05
-2.8204555008258488e-05
-1.2157075518125257e-06
3.891106841768707e-09
7.681134827514765e-07
3.5958506119752465e-06
1.1194497444056615e-05
2.820392930213206e-05
6.172688767518306e-05
0.00012165468390034686
0.00022063846225805787
0.0003735919496269789
0.0005966739967919612
0.0009057782358733371
0.0013146370646989034
0.0018327125023022974
0.0024630857018235193
0.003200564517509474
0.004030205371353674
0.004926397959757253
0.0058525986144244225
0.006761730940662147
0.007597210247175392
0.008294498387035663
0.00878306201825346
0.008988591006882577
0.008835333290692622
0.008248414869412642
0.007156034734494589
0.005491450465258764
0.0031946973375713943
0.0002140093465709474
-0.0034930673252272348
-0.00795886015611235
-0.01320503420437227
-0.019242304295129152
-0.026070360978435604
-0.03367797419006723
-0.042043239323541426
-0.051133932839967255
-0.060907948007703
-0.07131378541727214
-0.08229107723134926
-0.09377112849337547
-0.10567746311302922
-0.11792636632280233
-0.13042741945485015
-0.14308402684737284
-0.15579393859609145
-0.16844977676387834
-0.18093957659088195
-0.19314735823638998
-0.20495374863779928
-0.21623667716080572
-0.22687217275217406
-0.23673529412344313
-0.24570122780447953
-0.253646591265526
-0.2604509790709614
-0.2659987883196305
-0.2701813543241802
-0.2728994172534538
-0.2740659238653069
-0.2736091441321534
-0.27147604953760934
-0.2676358579495358
-0.26208360045741885
-0.25484351153066226
-0.2459719908248818
-0.23555984095384105
-0.22373346055306206
-0.2106546765504214
-0.1965189425195037
-0.18155171547516485
-0.16600294850371097
-0.150139790206843
-0.1342377467203789
-0.11857071850190024
-0.10340045563163747
-0.08896607209331356
-0.0754743175859797
-0.063091322318638
-0.05193649816313927
-0.04207918240490709
-0.03353842872927803
-0.026286074581222393
-0.02025286110708412
-0.015337002692933449
-0.011414276782996072
-0.008348514923724988
-0.006001379697301924
-0.004240514449412555
-0.0029455013000267427
-0.0020114661497033733
-0.0013505289865650759
-0.0008915418682246178
-0.0005786586874174021
-0.0003692565844165593
-0.00023161763472654242
-0.00014260434188990485
-8.524193443004446e-05
-4.5153930230273364e-05
-1.938501563181331e-06
9.299203129539786e-09
1.599749822915027e-06
7.151837613793654e-06
2.1433159412241318e-05
5.225364369226655e-05
0.00011108177779649822
0.00021326954168410705
0.00037770320387063637
0.0006257770621607367
0.0009796914628513458
0.0014601877951401223
0.002083928892690362
0.002860795439326162
0.003791388018603033
0.004865000210228298
0.006058268518644111
0.007334623000678084
0.00864457309628979
0.00992677993967759
0.011109799516537903
0.012114336224448208
0.01285582513030439
0.013247161396924207
0.01320141250610499
0.012634377465904324
0.011466891554315413
0.009626810461381039
0.007050640265701457
0.0036848071476082143
-0.0005134180540783374
-0.005575310557747073
-0.011520358858394149
-0.018356165736269994
-0.02607854020426182
-0.03467174009241559
-0.04410882920006622
-0.054352118044565925
-0.06535366258807443
-0.07705580051161921
-0.08939170937644329
-0.10228597524650539
-0.1156551640208375
-0.12940839088628991
-0.14344788604052963
-0.15766955727004855
-0.17196355223286416
-0.18621482553424876
-0.20030371804424943
-0.2141065585345276
-0.22749630074580168
-0.24034321254774468
-0.25251563798434556
-0.26388085769105035
-0.2743060782786469
-0.28365958647092127
-0.2918121084783668
-0.29863841839971167
-0.3040192401266811
-0.30784348369068176
-0.31001084734677836
-0.3104347989219638
-0.30904592219399063
-0.3057955750249135
-0.300659755505869
-0.29364301214260635
-0.28478216826148756
-0.2741495664215689
-0.26185548571179745
-0.24804935561733182
-0.2329193972967676
-0.21669037691133525
-0.19961926073460257
-0.18198871433453692
-0.16409857482760226
-0.14625562490500976
-0.12876218549691446
-0.11190419838859178
-0.09593957540605366
-0.08108763897109009
-0.0675204658413217
-0.055356866260492375
-0.04465957514425988
-0.03543599111650597
-0.027642475256397635
-0.02119184040498439
-0.01596327973514475
-0.011813677545821523
-0.008589092453468313
-0.006135250172575254
-0.004306125611478477
-0.00297007381578341
-0.0020133926666243184
-0.0013415698963566236
-0.000878712887846846
-0.0005657551659791788
-0.00035798759835350253
-0.0002222777155816532
-0.0001338810910446779
-7.125992663342364e-05
-3.0466215391193525e-06
2.0912737427008535e-08
3.1917757574043034e-06
1.3669289270794574e-05
3.9517614443493374e-05
9.3370274290199e-05
0.00019301959742488645
0.00036133958820150743
0.0006253500974096816
0.0010143748150685482
0.0015573985627965097
0.002279868123344424
0.003200277701675751
0.004326918857830118
0.005655152851708259
0.007165490412843331
0.00882265772538882
0.010575708727223842
0.012359131995888948
0.01409481013510147
0.015694629020826762
0.01706350562299476
0.018102603431136774
0.018712527503671566
0.018796329063728467
0.018262194670772794
0.017025740742534982
0.015011875745151084
0.012156226733902951
0.00840615282074244
0.0037213855995462865
-0.0019256534966477963
-0.008549805082987189
-0.016153339801853343
-0.02472629293733177
-0.034246921661962
-0.04468224714099235
-0.055988650034966635
-0.06811249391717551
-0.08099075654042517
-0.0945516536821416
-0.10871524450195766
-0.12339401105135571
-0.13849340789378037
-0.15391238084111153
-0.16954385669414535
-0.18527520868302005
-0.20098870511857073
-0.21656195166041856
-0.2318683406531953
-0.24677752425152258
-0.261155931620691
-0.2748673544287731
-0.2877736291739576
-0.29973544959125326
-0.3106133473122139
-0.320268883781308
-0.32856610056671065
-0.33537327769482056
-0.3405650491242085
-0.34402491915982597
-0.3456482113284272
-0.3453454596500274
-0.3430462191813504
-0.3387032267172813
-0.33229678356896747
-0.32383916256370154
-0.31337876598647435
-0.30100368873069605
-0.28684428343344864
-0.2710742961493623
-0.25391015660976013
-0.2356080776486851
-0.21645874845389737
-0.19677959051471605
-0.1769047671026997
-0.1571733713845223
-0.1379164351698612
-0.1194435722607049
-0.10203017705047245
-0.08590612900818542
-0.071246902182685
-0.05816784354600828
-0.046722162981758616
-0.03690287303985155
-0.028648542927078715
-0.021852325240750082
-0.016373336632014117
-0.012049199995729185
-0.008708453221112546
-0.0061816319544255385
-0.004310124726853699
-0.0029523120316436702
-0.001986940510270428
-0.001314053966896695
-0.0008540362245326606
-0.0005453811812587182
-0.000341646400436439
-0.00020742637104201303
-0.00011095872938457508
-4.7233326427233346e-06
4.455286798480663e-08
6.117118075900784e-06
2.516387200080918e-05
7.030800227403092e-05
0.00016121676947191153
0.0003244421354678533
0.0005927278518107591
0.0010031289246279895
0.0015940181019328242
0.0024012525496512195
0.003453922421847362
0.004770174489278625
0.0063535909774547015
0.008190517203659127
0.010248595173522144
0.012476603094780549
0.014805550376689283
0.017150855214221584
0.019415349504151115
0.021492816847318644
0.02327176971514216
0.024639202721562104
0.025484109499590984
0.025700610265014925
0.02519059680358997
0.023865854889670052
0.02164966723012074
0.01847793146874209
0.014299847916798284
0.009078241994690456
0.0027895889684732642
-0.004576194334035576
-0.013016132496552315
-0.022514698969106163
-0.03304440642699105
-0.04456644674479113
-0.05703135474555995
-0.07037967627272412
-0.08454262642794942
-0.09944272811233881
-0.11499442445467681
-0.13110466148565805
-0.14767343969538724
-0.1645943350518879
-0.18175499180104374
-0.1990375910374783
-0.21631930074577232
-0.2334727148747014
-0.2503662911414419
-0.2668647997950477
-0.28282979863487046
-0.2981201533166593
-0.312592626505259
-0.32610256481534233
-0.338504718685633
-0.3496542371514712
-0.35940788645015853
-0.3676255476913403
-0.3741720531779446
-0.3789194215838157
-0.3817495467795255
-0.3825573809409193
-0.38125462683278827
-0.3777739143177312
-0.37207338068824763
-0.36414150371092574
-0.35400195345777263
-0.34171814085693275
-0.32739705824139853
-0.3111919445233159
-0.29330328172562947
-0.2739776567210358
-0.2535041141258348
-0.23220778691904778
-0.2104408124220728
-0.18857080218759428
-0.16696740440122884
-0.14598774126860317
-0.12596168857711557
-0.10717806548167605
-0.08987280569794635
-0.07422008240388478
-0.06032716038153671
-0.048233457219645316
-0.03791392509686292
-0.029286443810804943
-0.022222491587710034
-0.016559997997644897
-0.012117054011143543
-0.008705113643126846
-0.006140488413427502
-0.0042532794268358
-0.0028933371914471703
-0.0019332876448256045
-0.0012690181198322568
-0.0008181963422342595
-0.0005172793848972056
-0.00031664586100602576
-0.00017024267884577313
-7.214293135804633e-06
9.038999640870853e-08
1.1289339075561741e-05
4.471293870410573e-05
0.00012093800761749381
0.00026946547587931727
0.0005284451636010222
0.0009429300036481104
0.00156161744785751
0.002432361360540014
0.003596962137974086
0.005085867299563154
0.0069134227094927005
0.0090742167265017
0.011540886868440257
0.014263551380852469
0.017170825789987708
0.020172217783097194
0.02316158067569709
0.026021251492718493
0.028626498967633546
0.030849947383008898
0.03256570904030143
0.033653036488596196
0.033999383226714315
0.03350282980376751
0.03207388622610579
0.02963671974347172
0.026129880270695505
0.021506606250315686
0.01573479471276992
0.008796713740551928
0.0006885262337514283
-0.008580317018831687
-0.018987767889569407
-0.030499918013375416
-0.0430717539622971
-0.05664790906097054
-0.0711633960100322
-0.08654430886475223
-0.10270848635375747
-0.11956613129027566
-0.13702038316235135
-0.15496784307491807
-0.17329905218910197
-0.19189892675043713
-0.2106471547714211
-0.22941856146858466
-0.2480834526788501
-0.26650794773309566
-0.2845543157081303
-0.3020813317055342
-0.3189446729461355
-0.3349973781802614
-0.35009039836189815
-0.364073271852063
-0.3767949636375925
-0.3881049150203381