# vtk DataFile Version 4.1 
COMMENT
ASCII
DATASET STRUCTURED_POINTS 
DIMENSIONS 100 100 1 
ORIGIN 0 0 0
SPACING 0.12693303650867893 0.12693303650867893 0 
POINT_DATA 10000
SCALARS U double 1
LOOKUP_TABLE default
0.0
0.0
0.0
0.0
0.0
0.0
0.0
0.0
0.0
0.0
0.0
0.0
0.0
0.0
0.0
0.0
0.0
0.0
0.0
0.0
0.0
0.0
0.0
0.0
0.0
0.0
0.0
0.0
0.0
0.0
0.0
0.0
0.0
0.0
0.0
0.0
0.0
0.0
0.0
0.0
0.0
0.0
0.0
0.0
0.0
0.0
0.0
0.0
0.0
0.0
0.0
0.0
0.0
0.0
0.0
0.0
0.0
0.0
0.0
0.0
0.0
0.0
0.0
0.0
0.0
0.0
0.0
0.0
0.0
0.0
0.0
0.0
0.0
0.0
0.0
0.0
0.0
0.0
0.0
0.0
0.0
0.0
0.0
0.0
0.0
0.0
0.0
0.0
0.0
0.0
0.0
0.0
0.0
0.0
0.0
0.0
0.0
0.0
0.0
0.0
1.1264424950471152e-11
-5.525035490745073e-09
-6.173730342501661e-08
-3.527399500116443e-07
-1.4462978555879673e-06
-4.801343595319702e-06
-1.3699472831371733e-05
-3.479099937819005e-05
-8.044775788046529e-05
-0.0001720732025746972
-0.00034442411601044633
-0.000650845178691565
-0.0011691213353598104
-0.0020074494183209483
-0.00330988025454231
-0.005260558917915645
-0.008086248793674543
-0.012056951362075368
-0.017484798345779602
-0.02472154126982059
-0.03415458805221591
-0.046200446261038544
-0.06129277912775975
-0.07986072617406934
-0.10229282786096638
-0.12888410074515008
-0.15976931377274453
-0.19485387468295873
-0.23376283664112085
-0.275834789378938
-0.3201867395275631
-0.3658655955505926
-0.4120814790093711
-0.45849153905162715
-0.505477474179693
-0.5543443788526983
-0.6073703054582775
-0.6676582210763601
-0.73878184772872
-0.8242652250275272
-0.9269800774743606
-1.0485726645255957
-1.1890342598268986
-1.3465050716917766
-1.517355992123661
-1.6965373992600539
-1.878132911133859
-2.0560203888456954
-2.2245297071442405
-2.37899769764813
-2.5161503026174095
-2.6342816674869063
-2.733239914785024
-2.814261438804247
-2.8797146602374357
-2.9328188759221883
-2.9773958508393004
-3.0176947619543544
-3.0583091738305197
-3.1041814425865906
-3.1606676079508302
-3.233615518291083
-3.32939112305668
-3.4547735924506355
-3.616632170130511
-3.821302523168313
-4.073607042137016
-4.375522171571064
-4.724592168090137
-5.112316438346839
-5.522871408112412
-5.932621585194749
-6.310870316373606
-6.6221506082878525
-6.8300500859188285
-6.902151753629158
-6.815265283888977
-6.559866378596812
-6.142677669723612
-5.586658452558976
-4.928255282455268
-4.21243416300775
-3.4865579243885008
-2.794416243799155
-2.171590259384739
-1.6428948952999616
-1.2220445435259555
-0.9131220811389397
-0.7130554908712348
-0.6142008738771442
-0.6062865601717481
-0.677308698444177
-0.8133541632732177
-0.9975909294537283
-1.2085521529336185
-1.4168318461214513
-1.5761495897734046
-1.5962533117040227
-1.2637768190294076
-0.05513470799881244
2.3020347705525804e-11
-1.916523060537091e-08
-1.7267631820513607e-07
-8.69308530449149e-07
-3.2451288476827524e-06
-9.975490702685349e-06
-2.6628751896464825e-05
-6.371111521888143e-05
-0.00013949618086471957
-0.0002836308817076533
-0.0005413652289097505
-0.000978077628134207
-0.0016835791942567976
-0.002775510556434854
-0.004401043778076325
-0.006736143514104731
-0.009981907441811077
-0.014358045548412808
-0.020094321311321554
-0.027421553661374064
-0.03656418479995281
-0.04773600025999639
-0.061139035020452905
-0.076963133867961
-0.09538081783385824
-0.11653041259416153
-0.14048140659922
-0.16718081581704172
-0.19638773426358583
-0.2276132570840739
-0.26009099067264135
-0.29280524278671577
-0.3245965809404844
-0.3543473077764157
-0.3812256918859803
-0.4049439379442047
-0.42596881975688133
-0.44562242666896057
-0.46602661142736257
-0.48987618195056737
-0.5200652622393104
-0.5592281139604416
-0.6092797506708707
-0.6710459520221524
-0.7440553742710032
-0.8265327995582408
-0.9155909777803874
-1.007579414673063
-1.0985208652776197
-1.1845554965995848
-1.2623192746022713
-1.3292034658575027
-1.3834699241372348
-1.4242251338058307
-1.4512790816114922
-1.464929545579533
-1.4657175794050827
-1.4541972892147221
-1.430755241219694
-1.3955051741808404
-1.34827482751107
-1.288695218703373
-1.2163985289202746
-1.1313266835052576
-1.0341443146241922
-0.9267312129405283
-0.8126957880101467
-0.6978029455848568
-0.590157841970452
-0.49995455436159264
-0.4386179287261845
-0.4172659239916016
-0.4446038809842165
-0.5245967348000583
-0.6544734747779479
-0.8237019225819368
-1.0144530909428564
-1.2037408042425461
-1.3669523581694003
-1.482033163502061
-1.5333243346820966
-1.5140928823165376
-1.427143717065668
-1.2834461453605697
-1.099257261859883
-0.8925977219274513
-0.6800245180123355
-0.4744511840751388
-0.2843811865515785
-0.11448202111943466
0.03293651359853422
0.156182636595812
0.25284318410279233
0.31935539228497495
0.35173248301162535
0.3473619369617983
0.30738736215228235
0.2381568469097491
0.14600144679737892
0.005067584097625881
2.422633900258884e-11
-6.217783516667082e-08
-4.929326224165387e-07
-2.2938588189161247e-06
-8.085802749595624e-06
-2.3755004242190473e-05
-6.108269601817693e-05
-0.00014157251085777196
-0.0003015780159406604
-0.0005986587305933891
-0.0011188711954283244
-0.001984451728822067
-0.0033610923110036638
-0.00546378251407261
-0.008560043964945608
-0.012969410892366962
-0.019058327971043565
-0.02723033412387119
-0.037912442257630796
-0.05153974683567214
-0.06854097333094654
-0.08932727546153128
-0.11428462257854047
-0.14376674407593132
-0.1780818861497815
-0.21746455592089847
-0.2620252486990471
-0.31167837047158514
-0.36606070590826756
-0.42446669543705334
-0.48583700839449934
-0.5488372795518525
-0.6120501006872451
-0.6742754465107579
-0.7348983028842276
-0.7942478205536293
-0.8538521668319303
-0.9164972934508578
-0.9860295115708247
-1.0668958683616916
-1.163479809318475
-1.279345247357142
-1.4165338473173765
-1.5750582692953918
-1.7526979289984457
-1.9451426693098086
-2.1464593139927945
-2.34979387336318
-2.5481824180470642
-2.735333682228416
-2.9062655333776317
-3.0577178698908134
-3.1883146412019414
-3.2984954843528396
-3.390273513654373
-3.4668949979779042
-3.5324784375443348
-3.591697759472761
-3.649551531688067
-3.711231826442623
-3.782076305989431
-3.867558081843892
-3.973242971512669
-4.104627666780133
-4.266772201474124
-4.463664482945274
-4.697309769466032
-4.966622267033076
-5.266295115019776
-5.585910929396991
-5.909592407143128
-6.216451688475637
-6.4819697505592835
-6.680245257814589
-6.7868457961605815
-6.781833908083895
-6.6524738393954665
-6.395169281701693
-6.016319403128073
-5.531968509966397
-4.966318269507068
-4.349336463932711
-3.713813950899467
-3.092282592107563
-2.5142046607674065
-2.0037744151534493
-1.578540944427025
-1.2488921853018549
-1.0182753502695367
-0.883916227167662
-0.8377703912372995
-0.867489880499408
-0.9572709101893857
-1.0884610153021392
-1.2395581511525853
-1.3843087157307234
-1.483941230324688
-1.4624557270973693
-1.1359386043411668
-0.049163865251729895
-7.548271924317523e-11
-1.8229349014650336e-07
-1.2959685355736315e-06
-5.598207742270586e-06
-1.861806809392973e-05
-5.209414813928248e-05
-0.00012836326411141467
-0.00028632430421729525
-0.0005888612641606215
-0.0011313177934956947
-0.002050319373229168
-0.0035319801023094215
-0.005818330141385542
-0.009210660001233394
-0.01406841131520813
-0.02080231666045941
-0.029860853021582624
-0.04170992625577651
-0.05680717654859205
-0.0755742467189242
-0.09837220231533869
-0.1254860095811304
-0.1571224082216346
-0.19342099295368664
-0.23447138558495179
-0.2803222277359464
-0.33096391113727947
-0.38627022881262246
-0.4458965542762174
-0.5091523660094097
-0.5748883488680913
-0.6414541429330796
-0.7067829550613177
-0.7686381120606243
-0.8250155072055689
-0.8746441313145915
-0.9174799890131294
-0.955063571911843
-0.9906199347492373
-1.028825849746931
-1.0752413999940427
-1.1354850647435928
-1.2142992278932436
-1.3146876431198105
-1.4372975574126925
-1.580169116054868
-1.738896880486109
-1.9071631779556075
-2.077531550573802
-2.2423464665287773
-2.39457937926845
-2.5284881884643604
-2.6400066824204216
-2.7268385452119683
-2.7882835626592244
-2.8248622938242565
-2.837825829464392
-2.82864090642579
-2.79853294078325
-2.7481571009585752
-2.6774555159829525
-2.5857484699239515
-2.4720952958792393
-2.3359384462024884
-2.178002061861039
-2.001348288019488
-1.8124051987367658
-1.6216901193956972
-1.4438979685979487
-1.2970497492707154
-1.2005347595964715
-1.1721328554588828
-1.224424553326561
-1.361295992456896
-1.5754104021543684
-1.8474549690038342
-2.14765169818518
-2.439500658741506
-2.6851420795133456
-2.851257547694395
-2.914235292544004
-2.8634755987311675
-2.7021749464950804
-2.4455660465947107
-2.1172153625240377
-1.7444093410040205
-1.3537822935725516
-0.968138558184573
-0.6049804973716177
-0.27671561443410614
0.007961304753674408
0.24230471369054035
0.4202057692501006
0.535965567495725
0.585441882381061
0.5684675369330111
0.4919370485496618
0.37138764106402994
0.22207435157815508
0.008459467430027644
-5.961160676527137e-10
-4.929501751197348e-07
-3.2011657191738927e-06
-1.2961246016112755e-05
-4.0941079236638037e-05
-0.00010969175217836131
-0.00026025686147092015
-0.0005612626127603571
-0.0011195148140869
-0.0020912277331022384
-0.003692695236231565
-0.0062090507563949
-0.00999975423194947
-0.015499530252168417
-0.023213574452855584
-0.03370591321370027
-0.04757996014364434
-0.06545085150092875
-0.08791041895966248
-0.11548783680046056
-0.14861170827152492
-0.18758156802823214
-0.23255687018609042
-0.28356801579564744
-0.34054647198320176
-0.40336117467000016
-0.47184000457114655
-0.5457532109992063
-0.6247443690752816
-0.708214520530493
-0.7951921370664293
-0.884246085837289
-0.97350923589125
-1.0608673695570345
-1.1443292960584146
-1.2225368922247843
-1.2953145005042892
-1.364116178818328
-1.432224268031143
-1.5045913165293392
-1.5872935168247972
-1.6866585190994232
-1.8082175263200497
-1.955685706037151
-2.1301800803091306
-2.3298382434885987
-2.549917008188298
-2.783350000237832
-3.0216528490278702
-3.256004951166963
-3.4783189354256066
-3.6821323009454865
-3.863209598479645
-4.019811533685911
-4.15265228800786
-4.264614484652151
-4.360314891568657
-4.445611973679574
-4.527123081975499
-4.611782444260192
-4.70643134103521
-4.817399892241398
-4.9500264330061166
-5.108074134083737
-5.293048809634654
-5.5034910587951185
-5.734391950346366
-5.976934746330902
-6.218762025088043
-6.444884707975774
-6.639190425105589
-6.786313441040794
-6.873467707528881
-6.891795183722629
-6.836889861654416
-6.708409476094108
-6.508999374993977
-6.243002981402004
-5.9155083386857665
-5.532133689617105
-5.099634173375297
-4.6270427523435105
-4.1267928371437925
-3.615217468959541
-3.112001083879453
-2.6385015211335303
-2.215231786903141
-1.8590638496283052
-1.580811201534722
-1.3837530956446815
-1.263427172653027
-1.2087083675673866
-1.203870678236396
-1.231015380037498
-1.2718797099781334
-1.3073433180323657
-1.3111354429582474
-1.2292355303412432
-0.9230501801930211
-0.03959771312376816
-2.479224879273599e-09
-1.2419823477812743e-06
-7.458415994231574e-06
-2.8485753754365417e-05
-8.579451208645902e-05
-0.00022068065904527995
-0.0005050689667583562
-0.0010543842593206802
-0.0020413488679460207
-0.0037090673821900274
-0.00638150890508515
-0.010469582912134017
-0.016471406273401427
-0.024965920147011027
-0.03659948876190391
-0.052065283324856146
-0.07207511817317386
-0.09732330091834157
-0.1284426295184584
-0.16595457382289117
-0.21021906784309297
-0.2613933472783093
-0.3194118786438566
-0.38399803104047103
-0.4547108132868404
-0.5310170693521655
-0.6123646224980002
-0.6982215429143557
-0.7880483028078219
-0.8811876660102198
-0.9766902039273445
-1.0731322027833898
-1.1685124734265286
-1.2603194814815464
-1.3458305464338027
-1.4226424835611935
-1.489353207669547
-1.546241496353337
-1.5957540041633957
-1.6426232432972288
-1.693510245328683
-1.75617540147384
-1.838300895129066
-1.9461838187384426
-2.0835625356908998
-2.250817420881394
-2.444706992412274
-2.6586840643099574
-2.8837149720529878
-3.109428230117339
-3.325367933846326
-3.522128677852768
-3.6921957767645748
-3.8303903915432955
-3.9339033353172983
-4.001975701426669
-4.035337295102544
-4.03554122185231
-4.004337383867664
-3.9432147230404735
-3.853216822440469
-3.7350994129330455
-3.5898489332281014
-3.4195148555907524
-3.2282256009871544
-3.0231694268887654
-2.815251772662395
-2.619122556935357
-2.4523315171022357
-2.3335281265085457
-2.2798529976948636
-2.3039130617217967
-2.4109163361006267
-2.596595199001818
-2.8464388315868696
-3.1365079679582286
-3.435786035941888
-3.7097165114547996
-3.9243592269749845
-4.050505481494972
-4.0671231549359295
-3.9636357688276758
-3.740744181598726
-3.4097472766945
-2.990575070726163
-2.5089690003916236
-1.9933757599338253
-1.472117951966
-0.9712562461196265
-0.513303643885395
-0.11667663014426796
0.2044338594650311
0.44015314358472124
0.5852865777869082
0.6401339000921084
0.6118095238174399
0.5158701690264786
0.37657043121174955
0.21704057183735226
0.008402440531618836
-8.153958331728307e-09
-2.9385036363719796e-06
-1.6471364151176222e-05
-5.965466828411865e-05
-0.0001719206682453359
-0.00042566084319185836
-0.0009417379349380248
-0.00190660347085505
-0.0035889239427485224
-0.006353118572248657
-0.010667174933944286
-0.017102641957232403
-0.026325748670873776
-0.039079898278719376
-0.05616089248666919
-0.07838665826990385
-0.10656270066881336
-0.14144321465759035
-0.1836866212085115
-0.2338045469962736
-0.2921060497330059
-0.35864423451981847
-0.4331785873842298
-0.5151699675641971
-0.6038223551533385
-0.6981738583263785
-0.7972206132491285
-0.9000372169534899
-1.0058457441896032
-1.1139914295178743
-1.2238108132489032
-1.3344226806109485
-1.4445191766738332
-1.5522643064170851
-1.6554019400456026
-1.751628059967441
-1.8392005469959758
-1.9176676517706426
-1.9885249547504131
-2.055588658393016
-2.124915005058444
-2.2041953799636413
-2.3016883053295905
-2.4248753383794344
-2.579110721005249
-2.76655007214912
-2.985587289231317
-3.2309177342512316
-3.4942109143732734
-3.7652527195494194
-4.033335028991972
-4.288644475595614
-4.523431332376284
-4.73280897625401
-4.915121427164815
-5.071897516541017
-5.20746711864616
-5.328338562591067
-5.44242817996989
-5.558203553958088
-5.683768426699501
-5.825898382127176
-5.989047565514192
-6.174392775991919
-6.379051497326656
-6.595676911890328
-6.812656437239869
-7.0150842918223555
-7.186528146011675
-7.31138771001218
-7.377412357718045
-7.377793149561052
-7.312250975149461
-7.186740557521841
-7.011744222461777
-6.799538597325276
-6.561147648409192
-6.303828538474907
-6.029815594505359
-5.736698753371484
-5.419338242003796
-5.072760474804783
-4.695180023062033
-4.290240581140675
-3.8677818168600475
-3.442858216795952
-3.0332393044225143
-2.6560609144076253
-2.324544289264491
-2.0456785712766954
-1.819475737005141
-1.6399349851832126
-1.4973249018857122
-1.380931597678467
-1.2810746258856243
-1.1888116279723926
-1.0907813874874372
-0.9535699333871388
-0.6827546238927802
-0.0290335263245477
-2.3290373229335215e-08
-6.5691699394088866e-06
-3.4617889880037135e-05
-0.00011939499096759459
-0.00033018521320141245
-0.0007885430345315773
-0.0016891553458983006
-0.003320868529668534
-0.006084573028117124
-0.010504297735635269
-0.01722821373857054
-0.027017375713813973
-0.04072186127426039
-0.059246179417319626
-0.08350780936250794
-0.11439372157684272
-0.1527190482140214
-0.19918957091069572
-0.25436617083697627
-0.3186266161561197
-0.3921202647894787
-0.47471595538867056
-0.5659520452487345
-0.6650069696589762
-0.7707134294254046
-0.881633997646794
-0.9961984080319193
-1.1128766858108794
-1.2303373924682321
-1.3475295731130428
-1.463641076680803
-1.5779267325986077
-1.6894572405392834
-1.796892766331511
-1.8984097063447307
-1.9918870096384027
-2.075387671016898
-2.1478688359251152
-2.2099531005751
-2.2645311650590125
-2.316969630621522
-2.374774310406919
-2.4466911531983935
-2.541376434128499
-2.665890724966731
-2.824330467217564
-3.016889434260825
-3.2395470531147765
-3.484439433604145
-3.740821017123449
-3.996407666732891
-4.23883157750939
-4.456942969909121
-4.641754463874148
-4.786920746497854
-4.888753586623846
-4.945867718902183
-4.958620476487634
-4.928538598802977
-4.857916556966775
-4.749722966949827
-4.607869292458889
-4.437787204218798
-4.247145229528869
-4.046439614280861
-3.8491535155237453
-3.671223853130607
-3.5296977444710884
-3.4406779850711433
-3.4168905274949877
-3.4653757713233104
-3.5858380644073287
-3.770055310565596
-4.0024868535290805
-4.261912103767519
-4.523694593094716
-4.76217951949863
-4.9528169752422135
-5.07380605255916
-5.107279046536294
-5.040192221071982
-4.8651059472981535
-4.580932604249302
-4.193569329798489
-3.716198262375121
-3.1689940022316856
-2.5780470621084914
-1.9734673186171423
-1.3868190293214107
-0.84820196479479
-0.3833901090164992
-0.011448760454666371
0.25683472966910703
0.41955292545296574
0.48342904105256607
0.46313958065040445
0.3807406367537756
0.2647105843919854
0.14274577288270276
0.005411396295658682
-6.008671906181746e-08
-1.3948146181394705e-05
-6.949881190931443e-05
-0.00022906697038053617
-0.0006093579976408597
-0.0014061885084449826
-0.002920519896914233
-0.005581819564474423
-0.009964212147388272
-0.01679098535176568
-0.02692394403131216
-0.04133587548954469
-0.061066906347143166
-0.08716851811462883
-0.12064186474211308
-0.16237887806862453
-0.2131143727832795
-0.27339421218569093
-0.34355880800036764
-0.4237345423341565
-0.5138212222945839
-0.6134647892288547
-0.7220130091459853
-0.8384661748123152
-0.9614493407296992
-1.089239156596056
-1.219869896330011
-1.351318152187879
-1.4817305212207983
-1.6096276571506125
-1.7340080286756174
-1.8542970754113022
-1.9701412063324104
-2.0811151541943995
-2.186468509111614
-2.2850549260602535
-2.3755492158677267
-2.456967609474333
-2.529391125362801
-2.594691238599956
-2.6570103429183196
-2.7227801691145737
-2.800166800993432
-2.8979824409019748
-3.024256174886355
-3.1847621366336623
-3.3818316848281933
-3.6137190461038275
-3.874665562149772
-4.155652691518312
-4.445690346309587
-4.733389625976944
-5.008535521832852
-5.263404111578957
-5.493642379226934
-5.698620937855597
-5.881255330387788
-6.047353654450246
-6.204583293166464
-6.361166118581365
-6.524425233807623
-6.6993310018557155
-6.887232705723154
-7.085000885072738
-7.284815284794739
-7.474781400372926
-7.640425554429298
-7.766916093888259
-7.841636166205367
-7.856567486531032
-7.809908469897506
-7.706481951207295
-7.556766338276235
-7.374731118684773
-7.174965740761139
-6.9697653618048365
-6.766831402561723
-6.568073742183622
-6.369726384781754
-6.163688864431501
-5.939750317410859
-5.688186044744137
-5.402158006217309
-5.079406122548099
-4.722880183623877
-4.340210037268063
-3.942197703277337
-3.54076779380772
-3.1469525772302123
-2.769457700606828
-2.4141486957919414
-2.0844751266824457
-1.7825103950824872
-1.5100272560707624
-1.268878879930631
-1.0597994082945716
-0.8782070912112899
-0.7036953951064622
-0.47360542209217216
-0.019992660374537872
-1.430225556248339e-07
-2.825247576962934e-05
-0.00013372955023081403
-0.000422493579356324
-0.0010833975262820178
-0.002419573469750651
-0.004877961329038675
-0.00907149708620763
-0.01578854940499477
-0.02598514648936788
-0.04075724814175503
-0.06129260716287051
-0.08880451247471789
-0.12445282885980548
-0.16926099018787094
-0.22404027096288553
-0.28933352153241937
-0.3653881513605951
-0.4521616220092318
-0.549352831532855
-0.6564425494783721
-0.7727202855149191
-0.8972783371993721
-1.0289681043864434
-1.1663357660979128
-1.307575389455346
-1.4505461816320702
-1.592888270600301
-1.7322376508407908
-1.866496193184584
-1.994075856498211
-2.114027463310453
-2.2259948650809367
-2.330000011603049
-2.4261411346203063
-2.514342776710652
-2.5943037317142577
-2.6657348109282855
-2.7288747891262144
-2.785154114288337
-2.837786336985813
-2.8920441825288044
-2.955036175744497
-3.034927227029381
-3.1397043197382675
-3.275726821015837
-3.4463764386841467
-3.651111555990995
-3.8851389607419695
-4.139771491130036
-4.403385095645903
-4.662765223386725
-4.904569913168982
-5.116645846859986
-5.289004845868036
-5.414377986729276
-5.488381626643239
-5.509423429663827
-5.4785227336092746
-5.399205122195351
-5.2775571545532065
-5.122411769310718
-4.945511947873683
-4.761414276059036
-4.586887627388935
-4.439658517610303
-4.336541683658096
-4.29121953964592
-4.312116787354048
-4.400877502664074
-4.551849231452118
-4.752730837347714
-4.986226841765942
-5.2322807080062095
-5.470329558106432
-5.681077099661816
-5.847495105600516
-5.955055668624682
-5.991463434662231
-5.946311639858031
-5.811083191653975
-5.579764689086998
-5.250087326445702
-4.825130985259865
-4.314810214870104
-3.736674083923214
-3.115535960385972
-2.4816988723919984
-1.8679010935255524
-1.305476476029389
-0.8204887924166195
-0.43066171952254145
-0.14374296298829253
0.04245788658856632
0.13863636457386277
0.16193639478180838
0.1342907563338118
0.08168284595986278
0.032095934840790784
0.0008918698154513099
-3.1826922455960565e-07
-5.479122323297926e-05
-0.0002473502633499983
-0.0007510531524592821
-0.001860126473824775
-0.004026397547068011
-0.00788848526537374
-0.01428684010312734
-0.02425921894244616
-0.03901350537506822
-0.05987751005695692
-0.08822796485951608
-0.1254031432825045
-0.17260560423530458
-0.2308038713242449
-0.30064451333016473
-0.3823883100293811
-0.4758841876834411
-0.5805902144492261
-0.6956409652268881
-0.819946351269207
-0.9522931971405904
-1.0914143261663733
-1.2359968683093796
-1.3846235469815444
-1.5356721551378205
-1.6872268035308489
-1.8370650047386625
-1.9827672819213833
-2.1219521804871997
-2.2525842333941895
-2.373259514863403
-2.483365745933995
-2.583051736540047
-2.67301472839082
-2.75419601334507
-2.827529165883984
-2.8938830048130386
-2.954275848440055
-3.0103281356578826
-3.0648069679731824
-3.122043808205157
-3.1880078483724117
-3.2698986140676007
-3.375259090046452
-3.510760948493281
-3.6809273852330295
-3.887100091654125
-4.126912795905851
-4.394419214743407
-4.680872738170926
-4.976010428270311
-5.2695902639515095
-5.552887497302683
-5.819874531645843
-6.06787543683991
-6.297581182257562
-6.512416707417884
-6.717354251326328
-6.917362678878217
-7.1157637451853955
-7.312820867536891
-7.504893008024334
-7.68442208981368
-7.8408746108060665
-7.962541259760163
-8.038861083961189
-8.062752878443915
-8.032378695219826
-7.951871371689432
-7.830811100282993
-7.682560026802726
-7.5218539884965026
-7.362214701356623
-7.213741047439138
-7.081684441080946
-6.965978798363447
-6.861663991603519
-6.759977724423099
-6.649821145912166
-6.519317416517525
-6.3572474661778235
-6.154228959361089
-5.903579468474615
-5.601862566298026
-5.249153163942839
-4.849074692107794
-4.408654567549691
-3.938018699711638
-3.4499119345164733
-2.9590082166372724
-2.4809791940684005
-2.031324438349573
-1.624003901604443
-1.2698942088494756
-0.974915470362601
-0.737144840330506
-0.5407353554082612
-0.3396615944955762
-0.014285663754144405
-6.679827446293209e-07
-0.00010202464984700273
-0.0004407718697659107
-0.0012893820479020937
-0.0030900035669293733
-0.006492300143183768
-0.012375854005619647
-0.021849425009866093
-0.036223001490351146
-0.056952790688370905
-0.08556325460370946
-0.1235529535412716
-0.1722918549684659
-0.23291733324314634
-0.3062355497922893
-0.3926356428637944
-0.4920267028589033
-0.6038106753352734
-0.7269051440076617
-0.8598248307994285
-1.000817692575416
-1.1480327022622925
-1.29967849019395
-1.454124546561357
-1.6099076484275776
-1.7656368629652013
-1.9198324097194597
-2.0707700934053417
-2.2164154532703693
-2.354509122876007
-2.4828107846944447
-2.5994430180816477
-2.703226772068185
-2.7938921081323747
-2.8720900659177726
-2.939210394259484
-2.99709333840324
-3.047774210865708
-3.093391066511215
-3.1363165412412295
-3.1794694643053933
-3.2266621952642023
-3.2827879568892326
-3.353673619475513
-3.4455146021231133
-3.5639401384514113
-3.7128841317156005
-3.893515908164381
-4.103490347549575
-4.336707728582052
-4.5836540520607985
-4.832261096449249
-5.069121390479346
-5.2808440696410575
-5.455350762861821
-5.5829727843221795
-5.657292956365051
-5.6757429331567515
-5.639992378079132
-5.556140200602093
-5.4346548508540184
-5.289946730882133
-5.139436613923444
-5.002043962839249
-4.896161147814006
-4.837365461376929
-4.836279861377715
-4.8970500448736765
-5.016814668676292
-5.186318234938907
-5.3915208388252545
-5.615796085115491
-5.842169263627754
-6.055077419942121
-6.241314741373324
-6.390093905891807
-6.492419431967369
-6.540157066929293
-6.525250745100423
-6.439479168963914
-6.274979995913954
-6.025541148229068
-5.688416079212245
-5.266218621742564
-4.768348714990757
-4.211436036024896
-3.6184778812869
-3.0166589937727353
-2.4341954678588436
-1.8968343299787918
-1.4247639784936112
-1.0305947622092186
-0.7187717592746143
-0.486367615327656
-0.3247871480224744
-0.22159511824554934
-0.16149942165844072
-0.1254601418572683
-0.08677534702009679
-0.003971269886367233
-1.3303186706911287e-06
-0.00018279084207177822
-0.0007579486460084945
-0.002140663365639342
-0.004972532820048409
-0.010155801751988614
-0.018859966456944093
-0.03249460284929997
-0.05264736227844867
-0.0809924258233678
-0.11917998152012295
-0.16871994322346906
-0.23087231873518527
-0.30655273651982584
-0.396256444943272
-0.5000003518750145
-0.6172828823193082
-0.747066276900183
-0.8877931249156433
-1.0374533461081217
-1.193713758630657
-1.354106805238332
-1.5162508191447388
-1.6780507964473734
-1.8378188995390565
-1.99426806684464
-2.1463711179400793
-2.2931300957476584
-2.433345090989925
-2.5654863301485054
-2.6877458813200192
-2.798281871014611
-2.895592305962107
-2.9788997447665246
-3.0484184702804824
-3.1054196923564574
-3.1520908706977924
-3.191267985002388
-3.226167360274692
-3.260233700867414
-3.2971557668597775
-3.3410079633330776
-3.3963956203223695
-3.468450370397564
-3.562556542338781
-3.683779999561814
-3.8360850279727656
-4.0215209271092816
-4.239602575858151
-4.487082027306577
-4.758218162111575
-5.045524993090195
-5.340852229498773
-5.63655825822013
-5.926499549884846
-6.206591234114655
-6.474786729237263
-6.7304631899244525
-6.973357035432896
-7.202334153587482
-7.414362289534219
-7.604043205172558
-7.763942991572428
-7.885746770149282
-7.962012791036622
-7.988090478917754
-7.963675567873354
-7.893546448431488
-7.787244707830356
-7.657758178002024
-7.519535220996362
-7.3863142038944956
-7.269248796051896
-7.175665338379817
-7.108568577358354
-7.066799141071877
-7.045607136924635
-7.037371714293164
-7.032257871935168
-7.01872305074424
-6.9839199475983555
-6.914144381516672
-6.795515476647201
-6.615033808005745
-6.362045328161752
-6.029971455697551
-5.617996988189522
-5.132298286850331
-4.586398770754965
-4.000381245712244
-3.3989428747635273
-2.8085753256025012
-2.254387655998287
-1.757166858955069
-1.3311320471961108
-0.9824604639739218
-0.7079707331170014
-0.49185193511160047
-0.29382885347245397
-0.012354014968327737
-2.5254775673307857e-06
-0.0003156678536373772
-0.0012594134596288027
-0.0034404607929326278
-0.007757976462044572
-0.01542232263763999
-0.027934956896160677
-0.04702379971732423
-0.07453773674508178
-0.11231197849240264
-0.16202217789286819
-0.2250477867249025
-0.3023629380216693
-0.39446611750877514
-0.501349650692528
-0.6224999669857245
-0.7569140362276728
-0.9031197536166327
-1.0591987088528236
-1.2228245167928287
-1.391340684212528
-1.561900277170743
-1.731671186759927
-1.8980796164048988
-2.059033274022469
-2.213051542777011
-2.3592454745897227
-2.4971365623882846
-2.6263653113546135
-2.746393058699693
-2.8563176919148545
-2.9548930581901605
-3.0407708814091485
-3.112900074017294
-3.1709565905723798
-3.2156645030904074
-3.2489117542988946
-3.2736434524854476
-3.2935965607630484
-3.3129869242143113
-3.3362531056542846
-3.367906402966054
-3.412459595588133
-3.4743447406314636
-3.5577121275852597
-3.6660381775228985
-3.801546403746295
-3.9645326673747103
-4.1527503763240174
-4.361029440976956
-4.5812695179349605
-4.802876741252712
-5.013628414929765
-5.200876685746721
-5.3529546250910895
-5.460626541496312
-5.5184177357260245
-5.525654889772199
-5.4870440973416965
-5.41262193023856
-5.316959657793968
-5.217601937338553
-5.1328773608465506
-5.07939514384188
-5.06967945667783
-5.110426823888341
-5.201767062840307
-5.337679350475428
-5.507428101595159
-5.697631169263915
-5.894437410739921
-6.085310366731594
-6.260072286646179
-6.4110969103094595
-6.53277367431042
-6.620537246562233
-6.6698319842094
-6.67536001414581
-6.630864164899247
-6.5295514411854905
-6.365098656746092
-6.133028727221776
-5.832134626688461
-5.465587542021354
-5.041415865068688
-4.572180270328221
-4.0738661953127435
-3.564212900276439
-3.060835320423122
-2.5795262134488457
-2.1330439728767994
-1.730528932526321
-1.377505726134964
-1.0762750292689793
-0.8263953667300223
-0.624866901566668
-0.46540961491265875
-0.3354345034697166
-0.20648941964308998
-0.008862174151089
-4.588520236328294e-06
-0.0005264991170352977
-0.002025295729787123
-0.005359584600152751
-0.011745854641447326
-0.022750746092024102
-0.04023247079805368
-0.0662295762117457
-0.10280711275337653
-0.15187856111315004
-0.21502756858491795
-0.29335548688543156
-0.38737788450383237
-0.4969850097523196
-0.6214681187505088
-0.7595981394274884
-0.9097299955293788
-1.0699008147203277
-1.2378974650980366
-1.411288161041845
-1.587437751878691
-1.7635452693781257
-1.9367435849288979
-2.1042790066258528
-2.2637487916684638
-2.4133333619391295
-2.551938793689076
-2.6791796776634467
-2.795183501630958
-2.900267948901703
-2.994602372631735
-3.0779854976095913
-3.1498394542215777
-3.2094449049175084
-3.2563528052198367
-3.2908421182364185
-3.314276953408213
-3.3292564197819665
-3.339527017931038
-3.3497066890400298
-3.364918708902199
-3.3904353011920625
-3.4313906043337368
-3.492564499040556
-3.578193106799357
-3.6917507330808457
-3.8356760295316517
-4.011067541042028
-4.217424161679919
-4.452528035167058
-4.7125462048496916
-4.992365768532956
-5.286095749541788
-5.5875984331017206
-5.890884731263938
-6.190241882343621
-6.480056123978934
-6.754421768618523
-7.006745291223193
-7.229607115878353
-7.415098806626398
-7.55570840806676
-7.645623653540727
-7.682135428604539
-7.666729597027216
-7.605500852904953
-7.508700423255236
-7.389479013210332