# vtk DataFile Version 4.1 
COMMENT
ASCII
DATASET STRUCTURED_POINTS 
DIMENSIONS 100 100 1 
ORIGIN 0 0 0
SPACING 0.12693303650867893 0.12693303650867893 0 
POINT_DATA 10000
SCALARS U double 1
LOOKUP_TABLE default
0.0
0.0
0.0
0.0
0.0
0.0
0.0
0.0
0.0
0.0
0.0
0.0
0.0
0.0
0.0
0.0
0.0
0.0
0.0
0.0
0.0
0.0
0.0
0.0
0.0
0.0
0.0
0.0
0.0
0.0
0.0
0.0
0.0
0.0
0.0
0.0
0.0
0.0
0.0
0.0
0.0
0.0
0.0
0.0
0.0
0.0
0.0
0.0
0.0
0.0
0.0
0.0
0.0
0.0
0.0
0.0
0.0
0.0
0.0
0.0
0.0
0.0
0.0
0.0
0.0
0.0
0.0
0.0
0.0
0.0
0.0
0.0
0.0
0.0
0.0
0.0
0.0
0.0
0.0
0.0
0.0
0.0
0.0
0.0
0.0
0.0
0.0
0.0
0.0
0.0
0.0
0.0
0.0
0.0
0.0
0.0
0.0
0.0
0.0
0.0
1.4559655890047304e-14
-7.141298013813146e-12
-1.0658690965704533e-10
-7.338165825302168e-10
-3.4967001305461126e-09
-1.3221247762479019e-08
-4.238179476963353e-08
-1.1968741397610094e-07
-3.0525369436428713e-07
-7.153555193988972e-07
-1.5600555240225179e-06
-3.1968511186072995e-06
-6.202733142047986e-06
-1.1465632878949698e-05
-2.0294192441075962e-05
-3.454228726883297e-05
-5.674202523723709e-05
-9.023638002439038e-05
-0.00013930053985108934
-0.00020923978048863084
-0.0003064514292392824
-0.00043843937762796763
-0.0006137715921712185
-0.0008419740044729007
-0.0011333577723919882
-0.0014987808687767273
-0.001949348929644579
-0.0024960639581020194
-0.003149432567633478
-0.003919047770272828
-0.004813159770788877
-0.005838251802333082
-0.006998636791663965
-0.008296089690065723
-0.009729528803357028
-0.011294757571297958
-0.012984276151575627
-0.014787170007756199
-0.016689080607840585
-0.0186722613999104
-0.020715720496532402
-0.022795449986447
-0.0248847404833346
-0.02695457837070027
-0.02897412213910793
-0.030911253149925877
-0.0327331950012134
-0.03440719431721103
-0.03590125414087336
-0.03718490910344696
-0.038230029127472386
-0.039011635577254816
-0.03950871053528668
-0.03970497633462911
-0.039589618747320296
-0.039157923502826326
-0.038411792337602474
-0.03736010189735199
-0.036018867012152865
-0.034411169847280584
-0.032566819202688814
-0.03052171110815137
-0.028316874333959453
-0.025997203805896225
-0.023609911625669333
-0.021202758226076052
-0.01882216151413334
-0.016511313494133567
-0.014308453881745245
-0.012245450882979247
-0.010346815818972661
-0.008629231360248827
-0.007101610241645461
-0.005765635419300065
-0.004616678490575467
-0.0036449624647278286
-0.0028368319488110043
-0.002176014101052868
-0.0016447864887488234
-0.0012250009800957554
-0.0008989373977495827
-0.0006499747743437253
-0.00046307533713917483
-0.0003250826769396388
-0.0002248449431515006
-0.0001531862891507334
-0.00010276161099600435
-6.783643709047963e-05
-4.40330924427524e-05
-2.807662498210064e-05
-1.756261336783642e-05
-1.0757707428156716e-05
-6.4353009417704366e-06
-3.743937790251276e-06
-2.1042110732891177e-06
-1.1297306339378567e-06
-5.681139969738526e-07
-2.581813198309516e-07
-9.784178563914991e-08
-4.2685371341436215e-09
2.045380387534575e-14
-1.7115795532699365e-11
-2.0341415478186004e-10
-1.263502766124285e-09
-5.628301244370597e-09
-2.0196505774762306e-08
-6.192172744414136e-08
-1.6800917584942066e-07
-4.128681733383711e-07
-9.340891623939074e-07
-1.9694275838170873e-06
-3.905984757353583e-06
-7.341469774392319e-06
-1.3155708043852387e-05
-2.258863754904375e-05
-3.731918268759154e-05
-5.953792115170939e-05
-9.200563157702203e-05
-0.0001380898135887637
-0.0002017721726727056
-0.0002876217941981491
-0.0004007311098278113
-0.0005466145156496757
-0.0007310723236291674
-0.0009600253113815164
-0.0012393272222795528
-0.0015745639781781146
-0.001970849012152799
-0.002432624012165946
-0.0029634735716361793
-0.003565960911556216
-0.004241490147474442
-0.00499019870974575
-0.005810881662498104
-0.006700947954880407
-0.007656407190682447
-0.008671884393338714
-0.009740659508614835
-0.010854728029661982
-0.012004879124867031
-0.01318078795515877
-0.014371119429016272
-0.015563641398531232
-0.016745346183868103
-0.017902580261054866
-0.019021182893957135
-0.020086635370040525
-0.021084223245037143
-0.021999214547781698
-0.02281705717949206
-0.023523598705000412
-0.024105331334191342
-0.024549664108052142
-0.02484522313569119
-0.0249821791900115
-0.02495260005974585
-0.024750822711624806
-0.024373837356085226
-0.023821671592618898
-0.023097757472095904
-0.022209257134591
-0.021167313638002276
-0.01998718355037311
-0.018688199078029065
-0.017293503738552936
-0.015829511726367637
-0.014325061691223814
-0.012810272660537502
-0.011315160434283676
-0.009868127948348689
-0.008494488574957266
-0.007215201325502171
-0.006045979956820012
-0.004996882607306003
-0.004072406175596692
-0.0032720220732726318
-0.002591022225633598
-0.002021514704279115
-0.0015534215532178978
-0.0011753761261399371
-0.0008754725757560854
-0.0006418649533622198
-0.00046323561931585646
-0.0003291530029597575
-0.0002303275899805251
-0.00015876516354795876
-0.00010781585311278518
-7.212664304972165e-05
-4.751777189533788e-05
-3.081264672408829e-05
-1.9652212365612093e-05
-1.231847697032159e-05
-7.5817738297909626e-06
-4.576657269610257e-06
-2.7048422497035788e-06
-1.5607793948823931e-06
-8.75114317876252e-07
-4.713278024526034e-07
-2.2696661654428617e-07
-9.974635872242194e-09
9.689155354680413e-15
-2.5525697168844135e-11
-3.241280520184592e-10
-2.108120903595996e-09
-9.673515226497343e-09
-3.53798726682783e-08
-1.0980551349624656e-07
-3.0025178845409725e-07
-7.414465833058773e-07
-1.6825367205315697e-06
-3.5540279105762653e-06
-7.0570819238165215e-06
-1.3275504796755017e-05
-2.3808010282611747e-05
-4.091522149910713e-05
-6.767278477663465e-05
-0.00010811934912959474
-0.00016738640460645034
-0.0002517963551805947
-0.0003689158561943779
-0.000527553335605987
-0.0007376925539876483
-0.0010103577381227853
-0.0013574098815154396
-0.0017912778662431282
-0.002324631785007995
-0.0029700089617333983
-0.003739405505953558
-0.004643847708108399
-0.005692958194760079
-0.006894531590990355
-0.008254133608504025
-0.00977473614760238
-0.011456399333394636
-0.013296009558285445
-0.015287080711849026
-0.01741962395743502
-0.019680089744524353
-0.022051384279481376
-0.02451296143949697
-0.027040990104780824
-0.02960859608047665
-0.03218617714210046
-0.034741789210841374
-0.03724160117885333
-0.03965041537918561
-0.041932250039612914
-0.04405097917555623
-0.045971024160999595
-0.047658089566116446
-0.0490799336781947
-0.05020716137352553
-0.05101402368956725
-0.05147920466646393
-0.051586572034050336
-0.05132586453686343
-0.05069328570842099
-0.04969197242678401
-0.04833230726115089
-0.04663204682731725
-0.04461624393013781
-0.042316948271183236
-0.03977267736882665
-0.037027654336398735
-0.034130811303981316
-0.031134557420387846
-0.02809331199892794
-0.02506181218995655
-0.022093226606040857
-0.01923714458342846
-0.016537561587181747
-0.0140310324950734
-0.011745197241419087
-0.009697878035179958
-0.007896892635420226
-0.006340628185270556
-0.0050192968446610186
-0.0039166818015884276
-0.003012113586186612
-0.0022824112458215344
-0.0017035778213948336
-0.0012521309900660395
-0.000906044258720745
-0.0006453431212309635
-0.0004524312838550218
-0.00031221942652165255
-0.0002121093415468905
-0.0001418668896305971
-9.340784680744279e-05
-6.0521481313886654e-05
-3.856135403407507e-05
-2.413450701110727e-05
-1.4815628945970284e-05
-8.903178708084971e-06
-5.223563530779856e-06
-2.9808567196399172e-06
-1.6446939624091754e-06
-8.664999949228519e-07
-4.066680293647854e-07
-1.787547366605332e-08
1.0947912996639988e-14
2.7188252831567634e-11
-8.02589593919147e-11
-1.6754026022232876e-09
-1.0384397234401899e-08
-4.3489960667074605e-08
-1.449254713396088e-07
-4.1214009068616926e-07
-1.0395737011883475e-06
-2.3831478637472366e-06
-5.04880268671353e-06
-1.000564816820688e-05
-1.8720946796427623e-05
-3.331031920919566e-05
-5.66928371322406e-05
-9.273765349273451e-05
-0.00014638705963858437
-0.00022374071674300823
-0.00033208740207326835
-0.00047987380119142664
-0.0006766042983801894
-0.0009326708470112392
-0.0012591172490582394
-0.0016673469710817633
-0.0021687875036646345
-0.0027745269123682697
-0.003494939481683734
-0.00433931723587239
-0.005315522788259675
-0.0064296766796785925
-0.007685889429044594
-0.009086045259221843
-0.010629641181987235
-0.012313682082215808
-0.014132629826785781
-0.016078402365124814
-0.018140417349729796
-0.020305673996091157
-0.02255886668953358
-0.024882524169076624
-0.02725716889504565
-0.029661492349036086
-0.032072543431754044
-0.03446592872849986
-0.03681602511919942
-0.03909620693681539
-0.041279091538437396
-0.04333680865152727
-0.04524130008040178
-0.04696465716622202
-0.04847950361629167
-0.04975943074936222
-0.05077949060885602
-0.05151674953547636
-0.05195090046353542
-0.05206492632158316
-0.05184579959493297
-0.05128519477123222
-0.05038018184007122
-0.049133861398440726
-0.04755589653270198
-0.045662894618785164
-0.043478593968951144
-0.04103381529957488
-0.038366144730121884
-0.03551932149795167
-0.03254230872984485
-0.029488030782455186
-0.02641177041629157
-0.02336924036450815
-0.020414382999167615
-0.01759700975463124
-0.014960460143217436
-0.01253951945530506
-0.010358859336987793
-0.008432234630009045
-0.006762576131273324
-0.005342977324496703
-0.004158419152702307
-0.0031879549130318756
-0.0024070233403814915
-0.0017895845513633108
-0.0013098650884998406
-0.0009436185698573063
-0.0006689169328247237
-0.00046655589516963976
-0.0003201801467310245
-0.00021622092352549863
-0.00014371158172137849
-9.402316878291798e-05
-6.054959701729483e-05
-3.836905262079735e-05
-2.3908233291250943e-05
-1.4633320170699593e-05
-8.784572310703268e-06
-5.161912188648312e-06
-2.9596505932900004e-06
-1.639732321908736e-06
-8.138620929424083e-07
-3.5617744906368756e-08
4.588162008148523e-13
3.7850597020159597e-10
1.8530365199970557e-09
4.615834831379459e-09
4.414461430481193e-09
-1.778888332869814e-08
-1.1757508141299443e-07
-4.264302204576607e-07
-1.2152561576790432e-06
-2.9876631455002355e-06
-6.606295604057115e-06
-1.3451689902883698e-05
-2.5608464372043503e-05
-4.606867063748474e-05
-7.893768252667379e-05
-0.0001296248108297804
-0.00020499946449187683
-0.0003134943957139523
-0.0004651403069102878
-0.0006715205062493385
-0.000945639808272674
-0.0013017078171545218
-0.001754842442593313
-0.0023207044254839183
-0.0030150774008855007
-0.003853410398576131
-0.00485034065916682
-0.0060192143599728225
-0.0073716215381089915
-0.008916959461879119
-0.010662036237996234
-0.012610723827630212
-0.014763667105110581
-0.01711805329475459
-0.019667444167278454
-0.022401671815667382
-0.02530679766468823
-0.02836513356972478
-0.03155532338047168
-0.03485248312444908
-0.038228397943202715
-0.041651774031957536
-0.045088544037952524
-0.04850222461568102
-0.051854325074951746
-0.055104806248213185
-0.058212588804152685
-0.06113611019842703
-0.06383392922558098
-0.06626537665476494
-0.0683912496189392
-0.07017454619093115
-0.07158123481201882
-0.07258105081797939
-0.07314830910840187
-0.07326271792327889
-0.07291017369162352
-0.07208351111300518
-0.0707831763884794
-0.06901778554862806
-0.06680452524255748
-0.0641693515530281
-0.06114694476400943
-0.05778038534481982
-0.05412052838532258
-0.05022506845064163
-0.04615730120573343
-0.04198459900995974
-0.03777662367467289
-0.033603303096599174
-0.02953260611494085
-0.025628170450185506
-0.02194687819654726
-0.018536529973014533
-0.015433828356108856
-0.012662919036782794
-0.01023472747756299
-0.008147253285936918
-0.006386849227395287
-0.004930346741280179
-0.003747741492507571
-0.0028050664441348753
-0.002067081876500167
-0.0014994966661023672
-0.001070569982988286
-0.0007520814855498749
-0.0005197617244809859
-0.0003533240477642524
-0.00023623937918030249
-0.0001553657067428959
-0.00010050751705151005
-6.395185070694171e-05
-4.001140318803692e-05
-2.459750486914125e-05
-1.4840898349851133e-05
-8.772000180145764e-06
-5.063668676475366e-06
-2.8264856483531196e-06
-1.4121421906645593e-06
-6.171077200077069e-08
3.5785147324236747e-12
1.7880156880792873e-09
9.449211083718282e-09
3.008410036855498e-08
7.009107970307615e-08
1.2230720837606113e-07
1.3663217149739505e-07
-3.442616320075327e-08
-7.235996019267361e-07
-2.5761916195081907e-06
-6.718733452190398e-06
-1.4964957268076262e-05
-3.004848512427794e-05
-5.586538507064627e-05
-9.770495089385683e-05
-0.0001624446055270972
-0.00025868520454838884
-0.0003968062503550495
-0.0005889261974034819
-0.0008487603708262975
-0.001191377085354044
-0.0016328603706579744
-0.002189894441876236
-0.0028792900879422273
-0.0037174761509239907
-0.0047199801788198
-0.005900921329820057
-0.0072725360366818256
-0.008844753251921975
-0.010624831762581532
-0.012617067533491507
-0.01482257468852716
-0.017239139858915672
-0.01986114640925937
-0.02267956259886541
-0.025681986075661144
-0.028852736201678046
-0.03217298550229577
-0.035620921922711934
-0.03917193446190509
-0.04279881603525919
-0.046471978998186766
-0.05015968056128316
-0.053828257270084945
-0.05744236974460626
-0.060965260913867544
-0.0643590329735769
-0.06758495016482689
-0.0706037761222277
-0.07337615584724237
-0.07586305316686577
-0.07802625463888607
-0.07982895002131267
-0.08123639735852144
-0.08221667715403803
-0.08274153471316303
-0.0827873023199625
-0.08233588336932572
-0.08137576905670234
-0.07990304527091438
-0.07792233400596725
-0.07544760160059509
-0.0725027577000593
-0.06912196655093765
-0.06534959826372774
-0.06123976296512839
-0.05685539424429439
-0.05226687663139956
-0.04755024018225609
-0.04278496913574989
-0.03805148950724843
-0.033428415459039525
-0.028989653500053898
-0.024801494543362394
-0.020919868565426446
-0.01738798617331885
-0.014234625142743677
-0.011473311549597336
-0.00910257429862307
-0.007107317500388196
-0.005461181719293243
-0.004129597816754714
-0.0030731259477713014
-0.002250651695540046
-0.0016220854721255976
-0.001150352376352853
-0.0008026204369818741
-0.0005508488823668743
-0.0003718160569593333
-0.00024680516247167967
-0.0001611015592750115
-0.0001034123210794801
-6.527749367821557e-05
-4.0513164708593684e-05
-2.4709299291829313e-05
-1.479535314488995e-05
-8.67778915137435e-06
-4.936814532335382e-06
-2.5122932022977157e-06
-1.0937949799585324e-07
1.7658751025642583e-11
6.3488853228552536e-09
3.29385749383807e-08
1.0725213596053772e-07
2.691288565847944e-07
5.566055340461159e-07
9.676041622987503e-07
1.3854959987149223e-06
1.4579360299526107e-06
4.226077666090623e-07
-3.119673800993407e-06
-1.1475655204851469e-05
-2.8156723276101662e-05
-5.817777927702424e-05
-0.00010832885212887351
-0.0001873894777672156
-0.0003062586993268563
-0.0004779796768183134
-0.0007176463983867772
-0.0010421896373723856
-0.0014700488328032368
-0.0020207448801303996
-0.0027143751054959117
-0.0035710555368058863
-0.004610336923524709
-0.005850620046744166
-0.007308593166564949
-0.008998710548231408
-0.010932726477896504
-0.013119294548632969
-0.015563637684516208
-0.018267290663325695
-0.02122791395642587
-0.024439175575661658
-0.027890696263085643
-0.03156805268320789
-0.03545283315089781
-0.0395227407135933
-0.04375173897415491
-0.04811023677892158
-0.05256530871654332
-0.0570809492144597
-0.061618358842436216
-0.0661362622171891
-0.07059125764458456
-0.07493819934140351
-0.07913061375578648
-0.0831211521596114
-0.08686208231200143
-0.09030582256669532
-0.0934055222643373
-0.09611569252198657
-0.09839289146501787
-0.10019646734154687
-0.1014893615546154
-0.10223897112241326
-0.10241806607188768
-0.10200575142756899
-0.10098845549180405
-0.09936091593360603
-0.09712712307676145
-0.09430116652236015
-0.09090791840311709
-0.08698347647410817
-0.0825752858013795
-0.07774186192566937
-0.07255205303811317
-0.06708380392125646
-0.06142241754718214
-0.055658346287509694
-0.04988457790607967
-0.0441937079060481
-0.03867480962284951
-0.033410231671274035
-0.028472476112366574
-0.023921343903795578
-0.019801571665324095
-0.016141208852931133
-0.01295097299551553
-0.010224751828219072
-0.007941290284603613
-0.006066927290827785
-0.004559074351876372
-0.0033700056008507807
-0.0024504960650195257
-0.001752911657298501
-0.001233497940109693
-0.0008537888428342947
-0.0005812110302861884
-0.000389059253664493
-0.00025605242843141306
-0.00016566182760849123
-0.00010535603452013387
-6.585583899395582e-05
-4.04507464041741e-05
-2.4400993450840276e-05
-1.4429831279523854e-05
-8.28410379704935e-06
-4.249118136011651e-06
-1.844574747562907e-07
6.834830901920975e-11
1.923711463411718e-08
9.612559085718047e-08
3.0828777701594947e-07
7.775941237755512e-07
1.6568269898186871e-06
3.0803591226654595e-06
5.06245000446036e-06
7.330402595593414e-06
9.087478733907166e-06
8.711087838287149e-06
3.4035101910519218e-06
-1.1176902179082865e-05
-4.1268526159691654e-05
-9.530470858196168e-05
-0.00018412094201402304
-0.00032104125777500435
-0.0005218245090879679
-0.0008044636034689788
-0.0011888433808116567
-0.0016962741480967035
-0.0023489266920869198
-0.0031692002216533637
-0.004179056976036509
-0.005399356442428292
-0.006849218831001061
-0.008545442398280926
-0.010501993165427442
-0.01272957925403302
-0.015235316033010149
-0.01802248294744265
-0.02109036853156331
-0.024434196796865867
-0.02804512592352806
-0.03191030888160756
-0.03601300513547043
-0.040332732790213065
-0.04484545127414638
-0.04952376578355995
-0.054337146133786665
-0.05925215427682631
-0.0642326764958494
-0.06924015812521946
-0.07423384054000084
-0.07917100208892205
-0.08400720659035393
-0.08869656495011644
-0.09319201736159141
-0.09744564536502383
-0.10140902470198684
-0.10503363129791903
-0.10827131369405789
-0.1110748456344658
-0.11339857204428586
-0.11519916000760404
-0.1164364632167514
-0.11707450334279729
-0.11708256450334413
-0.11643638718245675
-0.11511943545117266
-0.11312419629159963
-0.11045345283542685
-0.10712145561326991
-0.10315489949215349
-0.09859360170619878
-0.0934907717318677
-0.08791277022118575
-0.0819382743127996
-0.07565680076068412
-0.06916658375182884
-0.06257185525547418
-0.05597962479478935
-0.04949609611866215
-0.04322288759081998
-0.03725324353618744
-0.031668441147195914
-0.026534616571344198
-0.02190025227960664
-0.0177945733754433
-0.014227073169405873
-0.011188309636351357
-0.00865197949639324
-0.006578103279933563
-0.0049169821745898784
-0.003613464506464041
-0.0026110255706734272
-0.001855231805963941
-0.0012963088670397002
-0.0008907180843037671
-0.0006018155761094965
-0.00039978397085935603
-0.0002610735287691991
-0.0001675766278066824
-0.00010571072396943609
-6.552540055686306e-05
-3.989627166014166e-05
-2.382586156393733e-05
-1.3819388971529297e-05
-7.148814076408989e-06
-3.0918924747570927e-07
2.2520463977926323e-10
5.217600235531706e-08
2.499565197078207e-07
7.806574849492272e-07
1.9411698951404066e-06
4.12717168541259e-06
7.767177715734592e-06
1.3179682521695245e-05
2.033936105159617e-05
2.855116052795336e-05
3.604678565051696e-05
3.953351264402516e-05
3.373740943817373e-05
1.0989537608034044e-05
-3.9096599125583664e-05
-0.00012981504432637886
-0.00027739575001890825
-0.0005008576813953767
-0.000821689269879959
-0.0012633736335159293
-0.0018507876869144361
-0.0026095118657162644
-0.00356509042536084
-0.004742281490321825
-0.0061643320126058415
-0.007852306561304527
-0.00982449146232375
-0.012095888186520768
-0.01467780279389916
-0.01757753219125631
-0.020798143225691196
-0.02433833728958393
-0.02819239107385421
-0.03235016319524541
-0.0367971564085981
-0.04151462575353033
-0.046479724050485116
-0.05166567746204037
-0.057041985222744215
-0.0625746390095945
-0.0682263587113382
-0.0739568425285037
-0.07972303039580114
-0.08547938068363307
-0.09117816104013245
-0.09676975512286853
-0.10220298788752999
-0.10742547309527756
-0.11238398780834835
-0.11702487988489968
-0.1212945158501261
-0.12513977795878553
-0.12850862066066118
-0.13135069784125158
-0.13361807284377988
-0.1352660229856657
-0.13625394855614373
-0.136546392530047
-0.13611417083005328
-0.13493560334409904
-0.13299782267110344
-0.1302981207082321
-0.12684527327706632
-0.1226607614108671
-0.11777978710778353
-0.11225196477734578
-0.10614156156894623
-0.0995271647134103
-0.09250067539218268
-0.08516556757173648
-0.07763440429072122
-0.07002566688664502
-0.06246001583974345
-0.05505615654851582
-0.04792652379323595
-0.04117302431461726
-0.03488309157599152
-0.029126314612903118
-0.023951903310282113
-0.019387236603642916
-0.015437692453923551
-0.012087864527363762
-0.009304127794359938
-0.007038341329762364
-0.005232308754835824
-0.003822501051732201
-0.002744519974837585
-0.0019368548968413711
-0.001343642074350015
-0.0009163289224280566
-0.0006143254204576622
-0.00040485001260563735
-0.00026223135770248214
-0.00016691720482273791
-0.00010439017149457459
-6.412235227543555e-05
-3.86300269719187e-05
-2.259505590253354e-05
-1.1760585660486237e-05
-5.067950971837639e-07
6.583292968137797e-10
1.2981125303866156e-07
5.960156656679428e-07
1.8056716141518924e-06
4.394250787069997e-06
9.215868051681995e-06
1.7247365299816634e-05
2.9379409895812067e-05
4.6082295698976715e-05
6.695456811256309e-05
9.018451193014282e-05
0.00011197342316025024
0.00012598164079524401
0.0001228613172688426
8.993355600859293e-05
1.1053317396674772e-05
-0.00013331387826520563
-0.00036580065934445035
-0.0007116490920157185
-0.001198057929827446
-0.0018534101526551184
-0.002706430312788695
-0.003785321012484512
-0.005116923263555044
-0.006725937859557061
-0.008634235622934283
-0.010860274729479685
-0.01341863424830498
-0.016319665234323787
-0.01956925452770337
-0.02316869194392454
-0.02711462867857345
-0.03139911328115633
-0.03600969119356794
-0.04092955431591919
-0.04613772809662059
-0.05160928503183659
-0.05731557504061638
-0.0632244648451459
-0.06930058016243339
-0.07550554616947576
-0.08179822332738362
-0.08813493724499226
-0.09446970284138954
-0.10075444464499007
-0.10693921665954638
-0.11297242684729095
-0.11880107293387131
-0.12437099792879404
-0.12962717546693847
-0.13451403678132062
-0.1389758527570644
-0.1429571859932713
-0.14640342895809877
-0.1492614449325931
-0.15148032817769128
-0.15301229819851728
-0.1538137395891551
-0.15384639310699655
-0.15307869471098437
-0.1514872467392905
-0.14905838886158843
-0.14578981601370725
-0.14169216698580675
-0.13679048241245295
-0.13112540747534107
-0.12475399672306717
-0.11774997095792383
-0.11020328417108786
-0.10221888592928789
-0.09391461268915416
-0.08541820756934464
-0.0768635451676015
-0.06838621589288192
-0.060118692223345795
-0.05218534920606147
-0.044697640315982945
-0.0377497393087542
-0.03141495252457689
-0.02574318487983344
-0.02075970090887632
-0.016465348929246778
-0.01283830228388277
-0.009837217964702476
-0.007405538710334554
-0.0054765057747295795
-0.003978348509940996
-0.0028391066293010944
-0.0019906301900198915
-0.0013714698525975815
-0.0009285718175155805
-0.0006178772355618422
-0.0004040551231430619
-0.0002596537022433491
-0.0001639438171429017
-0.00010166988279768626
-6.183445939020299e-05
-3.649304743042267e-05
-1.9114840864117613e-05
-8.20435630258831e-07
1.7494870205843e-09
3.006730690943957e-07
1.324595241924608e-06
3.888276897781284e-06
9.233098494975942e-06
1.9006319243837438e-05
3.510744432503039e-05
5.937095925634283e-05
9.308124731749993e-05
0.00013634581357377281
0.00018738134218685966
0.00024178763583093208
0.00029189315805911733
0.0003262514963394381
0.00032935205796853084
0.000281584200216261
0.00015946629016092123
-6.38756260907382e-05
-0.00041801715455856204
-0.0009343859500620681
-0.0016453140038607751
-0.0025830531237866776
-0.0037788094264439827
-0.005261843041562607
-0.007058667395896014
-0.009192370126801838
-0.011682066222548922
-0.014542484292740989
-0.017783679394437
-0.02141086066728373
-0.02542431898722461
-0.02981943859296455
-0.0345867767600564
-0.03971219667956059
-0.04517704037102497
-0.050958330421303655
-0.057028991366820006
-0.06335808347602007
-0.06991104345267948
-0.0766499281308083
-0.08353365856589028
-0.09051826306763816
-0.09755711870464935
-0.10460119168905534
-0.11159927787268269
-0.11849824541183863
-0.1252432825438629
-0.13177815442386828
-0.13804547415132923
-0.14398699452349725
-0.14954392872149946
-0.15465731007401592
-0.15926840321723923
-0.16331918127653955
-0.16675288594037724
-0.16951468916558954
-0.17155247628564665
-0.172817769872416
-0.17326681106008862
-0.17286180930110143
-0.1715723617909217
-0.16937702929774734
-0.16626503542313537
-0.16223803155896024
-0.1573118410595782
-0.1515180656796846
-0.1449054087941006
-0.13754054832339369
-0.1295083835701887
-0.12091149024198612
-0.11186865126115357
-0.10251238886564878
-0.0929855027691845
-0.08343671161582847
-0.07401558868303357
-0.06486706475447976
-0.056125830708849495
-0.04791100414682031
-0.04032142823059379
-0.033431949707574155
-0.02729097855993373
-0.021919561453607676
-0.0173120994153944
-0.013438703298182421
-0.010249014771603483
-0.007677147109574093
-0.005647253764857429
-0.004079152075398185
-0.00289344178975389
-0.0020156670082133957
-0.0013792514513121378
-0.000927146109020121
-0.0006123157855435486
-0.00039731889111002466
-0.00025328661086613955
-0.00015858669167380995
-9.736815347049345e-05
-5.7973197440681936e-05
-3.0548853212856737e-05
-1.3058279541416038e-06
4.294505163999934e-09
6.548788102284729e-07
2.772689388377622e-06
7.88655660448031e-06
1.8252602084564914e-05
3.679457244851215e-05
6.684207833783506e-05
0.0001116393374364339
0.00017363989668690892
0.0002536443655563566
0.00034987139815266895
0.00045707022613307734
0.0005657830206353803
0.0006618483628664929
0.0007262074791090306
0.0007350387987228775
0.0006602102189396151
0.0004700075624650934
0.0001300756222391862
-0.0003955036320447278
-0.0011430730406008073
-0.0021482735546520916
-0.0034449880392327355
-0.005064399760213803
-0.00703419402293969
-0.009377916830280523
-0.012114492133833626
-0.015257889844306517
-0.018816930326650716
-0.022795207359681633
-0.027191110011030143
-0.03199792401055494
-0.037203994459101664
-0.042792933620291455
-0.04874385975005245
-0.0550316551694411
-0.061627233926084955
-0.06849781134189897
-0.0756071694899029
-0.08291591419756895
-0.09038172057401161
-0.09795956534613211
-0.10560194550579649
-0.11325908395201638
-0.12087912398798
-0.12840831572623848
-0.13579119868684192
-0.14297078616304337
-0.14988875829977288
-0.15648567230699958
-0.16270119984010972
-0.1684744033445464
-0.17374406508787715
-0.17844908465989515
-0.18252896281988015
-0.18592439152497783
-0.18857797146824426
-0.1904350790057489
-0.19144490328509128
-0.19156167084018802
-0.19074606788301526
-0.18896685895711063
-0.18620268361636041
-0.18244398985450477
-0.17769503436932857
-0.17197584673779112
-0.16532401998037705
-0.15779615820717546
-0.1494687889815388
-0.1404385405665863
-0.13082139899021988
-0.12075090167294643
-0.11037519429015533
-0.09985297147788057
-0.08934843028294809
-0.07902547400662312
-0.06904149808158043
-0.059541156008468335
-0.0506505346075871
-0.04247216236635324
-0.03508123498092669
-0.0285233713438745
-0.02281411219515031
-0.017940241955282623
-0.013862854367726479
-0.010521905917301944
-0.00784183143952612
-0.00573766747812178
-0.004121074422494509
-0.00290568884335003
-0.0020113699228082016
-0.001367100261070997
-0.0009125162035954468
-0.0005982282584727519
-0.0003852120280077329
-0.0002435849955913203
-0.00015101444723966668
-9.072504745626985e-05
-4.809490441279162e-05
-2.046978691712832e-06
9.847832082556747e-09
1.3510713412986577e-06
5.507223920780653e-06
1.5187338976522133e-05
3.424940631620108e-05
6.754405632414929e-05
0.00012046294692747393
0.00019818070764632444
0.0003046433243862862
0.00044140747781049353
0.0006064683303724556
0.0007932215986547884
0.0009896894941156717
0.0011781044443555052
0.0013348977286526673
0.001431091387700139
0.001433048905256262
0.0013035086242238628
0.0010028061158549708
0.0004901875279061574
-0.00027487694664747717
-0.0013314552743312325
-0.002716047881738805
-0.004461650075799371
-0.006596999710998645
-0.009146011466241456
-0.012127387233991373
-0.01555438424401016
-0.019434718233675582
-0.0237705775536815
-0.02855872478444806
-0.03379066449195112
-0.03945285854232092
-0.04552697344108578
-0.051990147134830036
-0.058815265412755086
-0.0659712403806645
-0.07342328543240764
-0.08113318274316865
-0.08905954060950802
-0.09715803902623936
-0.10538166278270009
-0.11368092213754764
-0.12200406184159585
-0.13029725996613578
-0.13850481870025746
-0.14656935004540755
-0.1544319602024326
-0.1620324374644753
-0.1693094496528986
-0.17620075862113171
-0.1826434611589846
-0.18857426780047662
-0.19392983358374263
-0.19864715768821187
-0.20266407194855923
-0.2059198412534929
-0.20835590134381543
-0.2099167608807996
-0.2105510939833028
-0.21021304563286897
-0.208863764173205
-0.20647316133073898
-0.2030218797304581
-0.19850342030392426
-0.1929263477660053
-0.18631645333112185
-0.1787187136320241
-0.1701988488429241
-0.16084425836631822
-0.15076410703057805
-0.1400883559143213
-0.1289655845533921
-0.11755953581247076
-0.10604442558204233
-0.09459918501333846
-0.08340092698248852
-0.07261803329297621
-0.0624033297937311
-0.05288784386993226
-0.04417562015766908
-0.0363400085398652
-0.029421738397329828
-0.023428959530568755
-0.018339268256411183
-0.014103555687234006
-0.010651330768933076
-0.007897009415053122
-0.005746554750081034
-0.004103830011034781
-0.0028760978980497454
-0.001978258080411376
-0.0013356254713426461
-0.0008852692457136991
-0.0005761088948678004
-0.00036805755360427107
-0.00023045950146673757
-0.00013970799502659626
-7.449660189870399e-05
-3.156443196731227e-06
2.1273540740406185e-08
2.6551425230009986e-06
1.0437753593471578e-05
2.7930201293866485e-05
6.138511427430113e-05
0.00011839414137031634
0.00020712712329964711
0.0003351887244386669
0.0005082067225503649
0.0007283221845322925
0.000992774968730967
0.0012927660207256923
0.0016127364512716926
0.0019301434235019378
0.0022157473361504323
0.002434365330431012
0.0025460010764297783
0.002507234203604238
0.0022727447519085143
0.0017968557632883266
0.0010349960264047677
-5.499002488145036e-05
-0.0015117317507362942
-0.003369443059237454
-0.005657256166664916
-0.00839876502143876
-0.011611755309970611
-0.01530809289875046
-0.01949374119886215
-0.024168879182482637
-0.029328094625682703
-0.03496063076657788
-0.04105066834121709
-0.04757762849615177
-0.05451648516523271
-0.06183807806760201
-0.06950941955704652