# vtk DataFile Version 4.1 
COMMENT
ASCII
DATASET STRUCTURED_POINTS 
DIMENSIONS 100 100 1 
ORIGIN 0 0 0
SPACING 0.12693303650867893 0.12693303650867893 0 
POINT_DATA 10000
SCALARS U double 1
LOOKUP_TABLE default
0.0
0.0
0.0
0.0
0.0
0.0
0.0
0.0
0.0
0.0
0.0
0.0
0.0
0.0
0.0
0.0
0.0
0.0
0.0
0.0
0.0
0.0
0.0
0.0
0.0
0.0
0.0
0.0
0.0
0.0
0.0
0.0
0.0
0.0
0.0
0.0
0.0
0.0
0.0
0.0
0.0
0.0
0.0
0.0
0.0
0.0
0.0
0.0
0.0
0.0
0.0
0.0
0.0
0.0
0.0
0.0
0.0
0.0
0.0
0.0
0.0
0.0
0.0
0.0
0.0
0.0
0.0
0.0
0.0
0.0
0.0
0.0
0.0
0.0
0.0
0.0
0.0
0.0
0.0
0.0
0.0
0.0
0.0
0.0
0.0
0.0
0.0
0.0
0.0
0.0
0.0
0.0
0.0
0.0
0.0
0.0
0.0
0.0
0.0
0.0
1.2880927145188343e-13
-6.317906146455395e-11
-7.137418552753329e-10
-4.114521118032372e-09
-1.701369170473357e-08
-5.6956078856359e-08
-1.638811649178363e-07
-4.1973392532628975e-07
-9.789370674982086e-07
-2.1123303584607316e-06
-4.266343641549775e-06
-8.137698388200425e-06
-1.4761913516837931e-05
-2.561153330171856e-05
-4.2697603903521606e-05
-6.866585352372679e-05
-0.00010687761918302072
-0.0001614650771694609
-0.00023735092122776488
-0.00034022429566381887
-0.0004764673900892887
-0.0006530303805364069
-0.000877256023044578
-0.0011566588078662922
-0.0014986668235973403
-0.0019103370808267804
-0.002398056813155206
-0.0029672441192965886
-0.0036220612414808884
-0.004365152884785851
-0.005197420424048773
-0.006117840811482162
-0.007123336693087034
-0.00820870186002588
-0.009366583870905651
-0.010587523614392925
-0.011860049829071349
-0.013170825207573808
-0.01450483969532944
-0.015845645929325414
-0.017175631403008804
-0.018476321826715308
-0.01972871020582693
-0.020913606304803347
-0.022012001329906924
-0.02300544277915831
-0.023876414417827955
-0.024608716198862984
-0.02518783863471356
-0.025601325634483533
-0.025839119163496335
-0.025893878296148684
-0.025761264367194274
-0.025440183037535372
-0.024932973229242414
-0.02424553208655955
-0.023387364404412202
-0.022371544355849527
-0.021214576921061587
-0.019936146387082986
-0.01855874010161544
-0.01710713808957838
-0.015607764219623583
-0.014087903447102184
-0.012574802987919121
-0.011094692822392333
-0.009671780811725452
-0.008327296176766207
-0.00707866691293505
-0.0059389164608601285
-0.004916348908751028
-0.004014560165819239
-0.0032327697311247384
-0.002566422957542402
-0.002007977942882631
-0.0015477733828165707
-0.001174877661692977
-0.0008778421241034585
-0.0006453142640086448
-0.00046649882603663106
-0.000331478037777144
-0.00023141299141546336
-0.00015864862530258903
-0.00010674017028447062
-7.041469842967764e-05
-4.548038930488902e-05
-2.8697953420580044e-05
-1.7630933610256797e-05
-1.0491890654991396e-05
-5.998754647475113e-06
-3.2506233371326675e-06
-1.6267543567517007e-06
-7.080768978834261e-07
-2.180437911591641e-07
2.1076898613311508e-08
1.1997482269157496e-07
1.4476439392115824e-07
1.3156266151086316e-07
9.209458704355409e-08
4.01780447976346e-09
2.605940522641743e-13
-2.1697832942640845e-10
-1.9696781454399162e-09
-9.989244029970583e-09
-3.757370474491902e-08
-1.1641478936271481e-07
-3.1330943413011824e-07
-7.55963649704372e-07
-1.6695910614449466e-06
-3.4249223225048442e-06
-6.596623717840476e-06
-1.2029157120989274e-05
-2.090509390017672e-05
-3.4809175193103146e-05
-5.578033024247855e-05
-8.63436800249669e-05
-0.00012951538514938655
-0.00018877500286433455
-0.00026800260134134666
-0.00037138092527764816
-0.0005032660377450438
-0.0006680327012724187
-0.0008699029851093833
-0.0011127679725763194
-0.001400012889492556
-0.0017343554998804267
-0.002117706340459971
-0.002551057487912558
-0.0030344043100416053
-0.0035667022878164206
-0.004145858731581484
-0.004768757230271064
-0.005431311091787765
-0.0061285409232192155
-0.006854670875976507
-0.007603237914396798
-0.008367208696259664
-0.009139099199987745
-0.009911093007843718
-0.010675155070023604
-0.011423138751594937
-0.0121468849346258
-0.012838312856426174
-0.013489503168921751
-0.014092774371956964
-0.014640754281535816
-0.015126448526048265
-0.015543308208511441
-0.01588529882645455
-0.016146972308583682
-0.016323543628832777
-0.016410972934692312
-0.016406053543540855
-0.016306505605880105
-0.016111074801485575
-0.015819635186911245
-0.015433295226071921
-0.014954505927357748
-0.014387169484340493
-0.013736745266076772
-0.013010346732880393
-0.01221681736531909
-0.011366766116939145
-0.010472534460724547
-0.009548060397238257
-0.008608603598703664
-0.007670304189535061
-0.006749568136781538
-0.005862304187566825
-0.005023075467770308
-0.004244263535204544
-0.003535362020830178
-0.0029025111468948144
-0.002348350067521112
-0.0018722071989634669
-0.0014705842511094466
-0.0011378363422556094
-0.0008669241713055341
-0.0006501211473163717
-0.0004795930951499797
-0.00034781584107583573
-0.0002478392042348537
-0.00017343202426133467
-0.00011914841669208076
-8.03459081064974e-05
-5.317138643102842e-05
-3.4519722156042755e-05
-2.1966414287625157e-05
-1.3678353174615565e-05
-8.311516514299251e-06
-4.907124135779765e-06
-2.796790723821465e-06
-1.5233482146508886e-06
-7.79351045053131e-07
-3.617000933867654e-07
-1.3912777364941375e-07
-2.924675785921053e-08
1.718379251552227e-08
2.5655543139611267e-08
1.2098847579920475e-09
2.7087416046467325e-13
-6.953964815312703e-10
-5.549685562905544e-09
-2.6011126292572268e-08
-9.239902971851729e-08
-2.7370360450547863e-07
-7.099624982156479e-07
-1.66063997201211e-06
-3.5713941134553733e-06
-7.1597313473706215e-06
-1.3517462930368748e-05
-2.4224915766037658e-05
-4.146895013980728e-05
-6.815447579166586e-05
-0.00010799775346072651
-0.00016558960246408993
-0.00024641779980034674
-0.00035684034862571134
-0.0005040046382146205
-0.0006957114209914629
-0.0009402265533885728
-0.0012460471637905307
-0.0016216319752173096
-0.0020751076862781004
-0.0026139644901041594
-0.0032447539956281485
-0.003972802115387984
-0.004801948074494257
-0.00573431878861962
-0.006770145673838322
-0.007907628689903997
-0.009142850249867308
-0.010469739679604304
-0.011880087263645462
-0.013363605610466041
-0.014908035118182207
-0.016499289700549383
-0.018121638604566236
-0.01975792006454645
-0.02138978263729755
-0.022997950291852812
-0.024562507629439276
-0.026063201932452502
-0.027479759035935785
-0.028792210235091993
-0.02998122754332925
-0.031028464553895713
-0.031916899891580544
-0.03263117972816868
-0.03315795504056439
-0.03348620819113196
-0.03360756201022046
-0.033516562913369234
-0.033210927817759035
-0.03269174296494166
-0.03196360156204938
-0.031034666883811558
-0.029916648640366337
-0.028624683426455837
-0.02717711504075329
-0.025595176977038253
-0.023902586315889682
-0.02212506380663983
-0.020289797092072556
-0.01842486130021358
-0.016558603674634163
-0.014718988989763798
-0.01293289509446644
-0.01122534917090627
-0.009618710043639435
-0.008131830646769264
-0.00677927152733174
-0.0055706686881870655
-0.004510372025190475
-0.003597452290943218
-0.002826122728040735
-0.002186546883182211
-0.0016659278588720223
-0.0012497206450913605
-0.0009227956496497807
-0.0006704112551375561
-0.0004789137290855341
-0.000336151797665728
-0.00023164833978155583
-0.00015659960249659628
-0.00010377251199409736
-6.735277118388784e-05
-4.277385933426534e-05
-2.6540071801755002e-05
-1.604909584618244e-05
-9.419160495576475e-06
-5.327792514757553e-06
-2.8697826242315497e-06
-1.4398295302201233e-06
-6.414820912800267e-07
-2.203038379642673e-07
-1.706033640015622e-08
6.326898015739044e-08
6.863629577597914e-08
3.005935832152263e-09
-8.322683550488798e-13
-2.0097451332687788e-09
-1.4370669424691406e-08
-6.249321828272808e-08
-2.0938948452830584e-07
-5.906790079024604e-07
-1.468346798281624e-06
-3.3062109822204713e-06
-6.867546853707028e-06
-1.3331844373209503e-05
-2.442372225820373e-05
-4.254324035487382e-05
-7.088394761570866e-05
-0.00011352357981377851
-0.00017547275595054414
-0.0002626693890025175
-0.0003819105850914415
-0.0005407190523729308
-0.0007471468077128361
-0.0010095245381438079
-0.0013361696938196642
-0.0017350697645593604
-0.002213558937831112
-0.00277800639078644
-0.003433532974008039
-0.00418377029730444
-0.005030672621408448
-0.005974387921010165
-0.007013190420777847
-0.008143473161744082
-0.009359795988571049
-0.010654981920104804
-0.012020253244558292
-0.01344539785480441
-0.014918956235236099
-0.016428420015048625
-0.017960433977805463
-0.019500994723334518
-0.02103564068318599
-0.022549629779734504
-0.024028102597615886
-0.025456230433191937
-0.02681934895273249
-0.02810307939004497
-0.029293440229095708
-0.030376953133687455
-0.03134074749279224
-0.03217266833048505
-0.03286139245705194
-0.03339655757062362
-0.03376890849485705
-0.033970463775435694
-0.03399470435877239
-0.03383678394289749
-0.03349375775753404
-0.03296482301461568
-0.03225156023794162
-0.03135816051442786
-0.03029162004733216
-0.02906188108668153
-0.027681898267213203
-0.026167612246493943
-0.024537818299107696
-0.022813925190198772
-0.021019607194024473
-0.01918035696109448
-0.01732294701555285
-0.015474802856747304
-0.013663283842560624
-0.011914865102598296
-0.010254221646731976
-0.008703239265360577
-0.007280014323770249
-0.005997946506025114
-0.004865058680619575
-0.0038836790472815104
-0.0030505822676327394
-0.00235761170823717
-0.0017927126483243225
-0.0013412242550513561
-0.000987232912408815
-0.0007147951840012424
-0.0005088908518828078
-0.0003560444842738569
-0.00024463051706437907
-0.00016492951578185827
-0.00010902275847793664
-7.060324317741237e-05
-4.475708088493754e-05
-2.774417220971151e-05
-1.6789944038882502e-05
-9.892472376112982e-06
-5.6482486114425305e-06
-3.1005681318459357e-06
-1.6140275294806113e-06
-7.763729479243235e-07
-3.26088215464979e-07
-1.0208000453281827e-07
-1.0812636026450781e-08
-3.976191067225052e-10
-6.4677953093090115e-12
-5.348711788920819e-09
-3.491687793226225e-08
-1.4228024675026475e-07
-4.527253023853416e-07
-1.222920379014944e-06
-2.927694918740308e-06
-6.375629574334224e-06
-1.285093423192568e-05
-2.4274109190776512e-05
-4.336898812895491e-05
-7.381987328640618e-05
-0.00012040039033030494
-0.0001890559094969483
-0.0002869239972262064
-0.0004222820657011182
-0.0006044175307136334
-0.0008434225283331553
-0.001149921697532765
-0.0015347469385128263
-0.002008576852418877
-0.002581560478658272
-0.0032629449677491246
-0.004060725190496032
-0.004981330381020687
-0.006029359216248007
-0.007207370727575401
-0.008515734545623148
-0.009952540524583402
-0.011513564993613652
-0.013192288841318539
-0.014979961360527658
-0.016865703194994707
-0.01883664171995807
-0.02087807261411122
-0.022973642098250743
-0.02510554519503009
-0.02725473629597996
-0.02940114922326897
-0.03152392478738249
-0.033601644533652594
-0.03561256992424778
-0.03753488661458478
-0.039346953758669714
-0.041027558424259224
-0.04255617522322536
-0.043913231169366976
-0.04508037556496317
-0.046040754383323536
-0.04677928814703855
-0.047282951685109584
-0.047541053365857816
-0.04754551041962066
-0.04729111575221477
-0.046775790168982076
-0.04600081214752621
-0.044971015213240664
-0.04369494066102291
-0.04218493104958426
-0.04045714800799005
-0.038531497124182364
-0.036431443903744525
-0.034183708824928966
-0.03181783676426481
-0.02936564599637472
-0.026860572793533932
-0.02433693643899443
-0.021829152995635794
-0.01937092242841143
-0.016994403573588966
-0.014729379746013429
-0.0126024122758815
-0.010635987786236227
-0.008847690957638715
-0.007249473004775493
-0.005847123237296422
-0.00464006798921772
-0.0036216019115529025
-0.002779596770752871
-0.002097644504029577
-0.0015565002723207876
-0.001135627809822898
-0.0008146352898361352
-0.0005744291196557307
-0.0003979901170160484
-0.00027076394076413156
-0.0001807280716474096
-0.00011823452357247968
-7.572951543429356e-05
-4.742947710466678e-05
-2.9002556118253716e-05
-1.7278860471319593e-05
-9.99674595335159e-06
-5.585795096855654e-06
-2.9857119680067583e-06
-1.5002569152530095e-06
-6.846191604265673e-07
-2.631633548923535e-07
-7.160448468107863e-08
-3.0963025812721857e-09
-2.643555603916517e-11
-1.324434247954716e-08
-7.992494884595993e-08
-3.0713802145785593e-07
-9.317227644627973e-07
-2.4161484630075947e-06
-5.580017170004043e-06
-1.1765064718185052e-05
-2.3025082148589672e-05
-4.2325665073418144e-05
-7.373339085837548e-05
-0.0001225710532565563
-0.00019551568280584675
-0.00030061942753174445
-0.00044723956555561985
-0.0006458720988518382
-0.0009078923809341711
-0.0012452148458757081
-0.0016698910649948437
-0.002193670295145536
-0.002827549012569174
-0.0035813356443552286
-0.004463254134435626
-0.005479605656898867
-0.006634502374156079
-0.007929681297908815
-0.009364400639420928
-0.010935415996120973
-0.012637029624520572
-0.01446120305258255
-0.016397721412245075
-0.01843439704559056
-0.02055730000746095
-0.022751003867495397
-0.024998836510341318
-0.02728312725989861
-0.02958544345203575
-0.03188681142175451
-0.03416791865982779
-0.036409295566018976
-0.038591476743092885
-0.04069514312057693
-0.042701247366629676
-0.04459112604562374
-0.04634660281576008
-0.04795008763994711
-0.04938467750145969
-0.05063426445907189
-0.05168365701503098
-0.052518720656994505
-0.05312654300791039
-0.05349562819596366
-0.05361612374886644
-0.053480081427742535
-0.05308175085754648
-0.05241790151772169
-0.05148816460724808
-0.050295381547574604
-0.04884594061495657
-0.04715007777034591
-0.04522211281380372
-0.04308058847800188
-0.04074827921679771
-0.03825203954942896
-0.035622469877556455
-0.032893390793024745
-0.03010113367306103
-0.027283672786442274
-0.024479638031084217
-0.02172725387097765
-0.019063247368950303
-0.016521758707747924
-0.01413327772942845
-0.011923628354785401
-0.0099130356671553
-0.008115337514600533
-0.006537433946556244
-0.005179086625961336
-0.004033169070370113
-0.0030864183323748872
-0.0023206560755102625
-0.001714354061753909
-0.001244345929694039
-0.0008874594282106749
-0.0006218708716240495
-0.0004280563361899282
-0.0002893066127147768
-0.00019185580442967446
-0.00012472530714135877
-7.939909519045273e-05
-4.943020593400023e-05
-3.0047124324764678e-05
-1.7797122733127497e-05
-1.0240442713966878e-05
-5.6965318265806416e-06
-3.038706092314504e-06
-1.5325374250500159e-06
-7.124318807211429e-07
-2.8467029621791715e-07
-1.2303097650738637e-08
-8.533187332674144e-11
-3.075578084629066e-08
-1.7320636867498998e-07
-6.311148928407276e-07
-1.8319225627019426e-06
-4.572943428689377e-06
-1.0210215618924708e-05
-2.0881136621612985e-05
-3.9743563647675e-05
-7.120701516275759e-05
-0.00012112747747318489
-0.00019693712657680544
-0.00030768429172196263
-0.0004639666926108517
-0.0006777512073463089
-0.0009620846236635884
-0.0013307103804007985
-0.001797614836898469
-0.0023765321681723946
-0.0030804391584649342
-0.003921070059781664
-0.004908477821241539
-0.006050662178485788
-0.0073532782300082975
-0.00881943209488958
-0.010449563776960224
-0.012241411980222269
-0.01419005162903671
-0.016287992332357788
-0.018525324910216495
-0.020889903167820037
-0.02336754908502314
-0.02594227119237985
-0.028596487850872255
-0.03131124920232517
-0.03406645352648117
-0.03684105550077703
-0.03961326533552731
-0.04236073892138969
-0.04506075998365501
-0.047690415819524386
-0.050226768545199696
-0.052647023950798996
-0.05492870010432985
-0.05704979780801945
-0.058988974930167457
-0.06072572654209118
-0.06224057269948741
-0.06351525562372204
-0.06453294794855148
-0.06527847357086096
-0.06573854242887238
-0.06590200015406808
-0.06576009290671563
-0.06530674669123838
-0.06453885892388238
-0.06345659785615365
-0.06206370252797295
-0.06036777217399617
-0.05838052948395172
-0.05611803705814074
-0.05360084131684531
-0.05085401389454568
-0.0479070584330964
-0.04479365218542696
-0.04155119834427504
-0.038220177209965185
-0.03484330151953201
-0.03146450096011125
-0.02812777893315669
-0.024875996378019696
-0.02174963972263683
-0.018785623140456117
-0.016016164056361
-0.013467763268992473
-0.01116032469995523
-0.009106466955507483
-0.007311103260816072
-0.005771383492553959
-0.004477085011917628
-0.0034114968608559932
-0.002552767313892672
-0.0018755960425037793
-0.0013530773790539124
-0.0009584669391589046
-0.000666663487222697
-0.0004552654180575206
-0.00030515401858329335
-0.00020064460379154827
-0.0001293078804794606
-8.158715577271676e-05
-5.0326534248165623e-05
-3.0294730781880283e-05
-1.7753995055873603e-05
-1.0094916029033636e-05
-5.539826450944213e-06
-2.908810202683628e-06
-1.4378457863802105e-06
-6.25871563626748e-07
-2.7080826364481715e-08
-2.388524076917571e-10
-6.738070048495491e-08
-3.567308830429218e-07
-1.23790346449511e-06
-3.44857831511589e-06
-8.305241847394988e-06
-1.7958788018236635e-05
-3.567539773464642e-05
-6.611378928373847e-05
-0.00011556401177225482
-0.0001921120388514728
-0.0003056989820678601
-0.000468053171295779
-0.0006924861372757392
-0.0009935576440448857
-0.001386628233951009
-0.001887328452664385
-0.0025109807945617383
-0.003272012942668984
-0.004183399250899387
-0.005256162351652611
-0.006498959327347069
-0.007917768236218564
-0.009515682035092378
-0.011292808992476241
-0.013246272153140778
-0.015370295626614879
-0.017656362491104423
-0.020093427792179604
-0.02266817019930283
-0.025365267023759776
-0.028167679149990476
-0.031056934671317152
-0.0340134023896612
-0.037016548643037384
-0.040045173036866256
-0.043077620506384424
-0.04609196870509364
-0.04906619100906326
-0.05197829648069314
-0.05480644899038767
-0.05752906839488781
-0.06012491725764456
-0.06257317710320988
-0.06485351864816626
-0.06694617085873975
-0.06883199405122538
-0.07049256256441051
-0.07191026276845096
-0.07306841229252056
-0.07395140629844421
-0.07454489632683907
-0.07483600660640974
-0.0748135916407966
-0.07446853725437955
-0.07379410496902487
-0.07278631648773524
-0.07144437109639687
-0.06977108393306072
-0.06777332737656787
-0.06546245147201099
-0.06285465274117527
-0.05997125460214492
-0.05683885796973831
-0.05348931880792845
-0.04995951206614229
-0.04629085005163881
-0.042528538680368995
-0.038720576626620457
-0.034916527640227214
-0.03116612080545136
-0.02751775193763457
-0.024016967275842578
-0.02070500692267704
-0.01761747343950439
-0.014783177862848686
-0.012223209208572615
-0.009950278522356462
-0.007968401355945986
-0.006272991817820722
-0.0048514319780546145
-0.0036841413949380065
-0.0027461034922878595
-0.0020087235727408153
-0.0014418227596090726
-0.001015538555382476
-0.0007019202197203451
-0.0004760721474735304
-0.0003167907179131192
-0.0002067317093081871
-0.00013221191070181165
-8.277770994931789e-05
-5.06671892213078e-05
-3.0262876010608538e-05
-1.7595156379773805e-05
-9.923552983592624e-06
-5.400004887044379e-06
-2.8019585145547605e-06
-1.2928373810467684e-06
-5.57694742158653e-08
-6.027170795673073e-10
-1.3993893068059235e-07
-7.005747510846022e-07
-2.3238288632593694e-06
-6.229471726103671e-06
-1.4503065580874823e-05
-3.042111258731424e-05
-5.878030665986569e-05
-0.00010618910238869195
-0.000181277695415199
-0.00029478745969097037
-0.0004595122298625217
-0.0006900796279738411
-0.0010025782435987664
-0.0014140530783225702
-0.001941904869741109
-0.0026032371318903016
-0.003414197372964163
-0.004389356284034768
-0.005541161756202361
-0.0068794948243338155
-0.008411343622137364
-0.010140600602454282
-0.012067978757823979
-0.0141910351060703
-0.016504284621245383
-0.01899938508311016
-0.021665372721229217
-0.024488929615839358
-0.027454666092846032
-0.030545404328129
-0.03374245263002953
-0.03702586306079976
-0.040374667949410956
-0.04376709329556772
-0.047180749005151935
-0.05059279733047727
-0.05398010185831083
-0.057319359964743015
-0.0605872219210881
-0.06376039987326457
-0.06681576980744366
-0.0697304694267261
-0.07248199465570444
-0.07504829730907972
-0.0774078863431956
-0.07953993508108385
-0.08142439687745469
-0.08304213187327517
-0.08437504776913764
-0.08540625789321972
-0.08612026020048086
-0.08650314113278107
-0.08654280837829487
-0.08622925633895882
-0.08555486735698864
-0.08451475024896775
-0.0831071152233722
-0.08133368061125659
-0.07920010188238656
-0.07671640713627824
-0.07389741583114612
-0.07076310940533259
-0.06733891448299953
-0.06365585279577471
-0.059750508472621144
-0.055664764896715326
-0.05144527173933785
-0.047142619172532596
-0.042810220272197504
-0.03850293179620259
-0.03427547325121472
-0.030180728555456688
-0.02626802832003547
-0.022581511286345668
-0.01915865269916115
-0.016029031538526858
-0.01321339540299923
-0.010723076653646912
-0.008559814961510053
-0.006716041025361166
-0.005175661320920811
-0.0039153445345253635
-0.0029062469160298548
-0.0021160392004784235
-0.001511034615262723
-0.001058189033792348
-0.0007267639820805982
-0.0004895080333576905
-0.00032330363337648965
-0.00020931813194580484
-0.00013276591902278254
-8.242020984624897e-05
-5.000894383910792e-05
-2.9600547405006365e-05
-1.7046738141971227e-05
-9.512616019160485e-06
-5.089777295110492e-06
-2.4256056630194293e-06
-1.043393980938741e-07
-1.3998826003444826e-09
-2.765973991762141e-07
-1.315680066961547e-06
-4.184696655981825e-06
-1.0819253435356046e-05
-2.4393630708424854e-05
-4.9706690576063505e-05
-9.353443595864802e-05
-0.00016489560697901544
-0.00027518154692924586
-0.00043811480142697147
-0.0006695201514052405
-0.0009869135789889326
-0.001408935348715866
-0.001954669815496148
-0.002642904677760874
-0.003491385408213645
-0.004516116967154155
-0.005730756016924605
-0.007146124620770677
-0.008769862853922542
-0.010606224689537152
-0.012656010319206375
-0.014916619564547456
-0.017382205548131798
-0.020043905199525276
-0.022890123050218637
-0.025906846524725368
-0.02907797392070999
-0.03238563988941295
-0.03581052698287221
-0.03933215536159883
-0.04292914582415883
-0.04657945381599692
-0.05026057398036141
-0.05394971617705003
-0.05762395480218929
-0.06126035379888582
-0.06483607005928792
-0.06832843807753076
-0.07171503879746184
-0.07497375566710797
-0.07808282100317789
-0.08102085590699644
-0.08376690716852005
-0.08630048484800498
-0.08860160452868093
-0.09065083857613876
-0.09242938110380526
-0.09391913170587114
-0.09510280334830042
-0.0959640600621518
-0.09648769020143591
-0.09665982092713778
-0.0964681791480667
-0.09590240324335658
-0.09495440833365189
-0.09361880545623166
-0.0918933715243745
-0.089779562228591
-0.08728305395487386
-0.08441429337832317
-0.08118902488415991
-0.07762875692893575
-0.07376111984182722
-0.06962006079924554
-0.06524581864127292
-0.06068462394551522
-0.05598808028991222
-0.05121220207748737
-0.04641611223992935
-0.041660436948276695
-0.037005469211856594
-0.03250920256262331
-0.028225353876739856
-0.024201497388469894
-0.020477421078658832
-0.017083797245315113
-0.01404123871750733
-0.01135979664592817
-0.009038945460231512
-0.007068089215504479
-0.0054276011370497645
-0.0040903668348834625
-0.0030237419031156195
-0.0021917681640052987
-0.0015574396772496768
-0.0010847901668273737
-0.0007405991136744084
-0.0004955809715999456
-0.00032501315963505054
-0.0002088487832291397
-0.00013142695858435263
-8.092482695119387e-05
-4.869124035832433e-05
-2.8572701382050163e-05
-1.6299698268340567e-05
-8.9474794062385e-06
-4.372128469670771e-06
-1.8738800494409037e-07
-3.031575931430607e-09
-5.220461424991164e-07
-2.368781217695928e-06
-7.243950430860918e-06
-1.809974414548733e-05
-3.958409912294342e-05
-7.846280299122802e-05
-0.00014395316529812542
-0.00024790850477834946
-0.00040480764999102425
-0.0006315267272109811
-0.0009468973248596482
-0.001371080875743327
-0.0019248096387910977
-0.0026285572465114602
-0.003501705390701412
-0.004561768450068575
-0.005823726547537156
-0.007299502165324277
-0.00899759866819742
-0.010922903192187963
-0.01307664304457101
-0.015456475012653726
-0.01805668109383621
-0.02086844188767907
-0.023880159611525766
-0.02707780560571395
-0.03044527144225986
-0.033964707584722656
-0.03761683836049033
-0.041381246371746956
-0.04523662313297477
-0.04916098557424454
-0.05313186009685158
-0.057126437192845846
-0.061121700366554566
-0.06509453336343424
-0.06902180965466449
-0.0728804678641945
-0.07664757645635761
-0.08030039060199211
-0.08381640376392702
-0.08717339622643565
-0.0903494825628687
-0.09332315990760592
-0.09607335888402206
-0.09857949914769366
-0.10082155174003624
-0.1027801108157358
-0.10443647780658656
-0.1057727617043124
-0.10677199985999535
-0.10741830445917241
-0.10769704055871564
-0.10759504214232972
-0.10710087289512867
-0.10620513809116501
-0.10490085285927805
-0.10318386983686965
-0.10105336552917794
-0.09851237929891317
-0.09556839166592215
-0.0922339195466841
-0.0885270955572975
-0.08447218729487561
-0.08010000184749229
-0.07544811243672771
-0.07056084030000752
-0.06548892811026913
-0.06028885357170633
-0.05502175450157802
-0.04975196909487941
-0.044545234143680355
-0.03946662427514969
-0.03457834976337906
-0.029937552440704316
-0.02559424456161823
-0.02158952439316362
-0.017954179558178678
-0.014707761972972204
-0.011858192746252154
-0.009401933280654846
-0.0073247360063063765
-0.005602957289022839
-0.004205370487759099
-0.0030953604074148455
-0.0022333224371305404
-0.0015790480613596923
-0.001093870315329266
-0.0007423767200186749
-0.0004935684210573008
-0.0003214353374950576
-0.00020500473602788318
-0.0001279841236742769
-7.814755988586138e-05
-4.660754779600298e-05
-2.7078726784403206e-05
-1.5169107817479718e-05
-7.55087673434625e-06
-3.224075557197519e-07
-6.1755516065596e-09
-9.435395331413822e-07
-4.097804278236236e-06
-1.2077068556663076e-05
-2.9214935442733604e-05
-6.206648139596481e-05
-0.00011982331772629338
-0.00021456934875415862
-0.00036131806480422607
-0.0005777993285073824
-0.000883996269007805
-0.0013014648621958978
-0.0018524945621065973
-0.002559184279204355
-0.003442512665399105
-0.0045214758104436615
-0.005812351447074026
-0.007328129845423279
-0.009078131124293077
-0.01106780962972157
-0.013298730416964066
-0.015768691855489382
-0.01847196220750548
-0.02139959626600869
-0.0245397998915457
-0.027878314472243156
-0.03139879886779315
-0.03508319234895622
-0.038912047696389195
-0.042864828507873425
-0.046920168640160055
-0.0510560945246551
-0.05525021292202261
-0.05947986767775074
-0.06372226940389308
-0.06795460193954751
-0.07215410911232642
-0.07629816488071459
-0.08036432949131929
-0.08433039390808392
-0.08817441450378581
-0.0918747398640611
-0.09541003153952013
-0.09875928067986774
-0.10190182267751137
-0.10481735221830334
-0.10748594146763227
-0.1098880644994533
-0.11200463149758598
-0.11381703672080157
-0.11530722472577355
-0.11645777988210859
-0.11725204477884697
-0.11767427368015525
-0.11770982767639794
-0.11734541848815239
-0.11656940785126045
-0.1153721688121625
-0.11374651380154362
-0.1116881916876169
-0.1091964517792098
-0.1062746666368668
-0.10293099736913755
-0.09917907489032204
-0.09503865880769849
-0.09053622309054622
-0.08570540593090854
-0.08058725231602508
-0.07523017435255842
-0.06968955902709308
-0.06402696815760513
-0.05830890189364489
-0.05260513433360328
-0.04698667410382681
-0.041523447987587864
-0.03628184425038395
-0.03132227689804725
-0.026696938118415545
-0.022447893398026393
-0.01860564663624683
-0.015188268053285147
-0.012201142248957724
-0.00963736012801734
-0.007478744481077108
-0.005697459930100721
-0.004258110449676336
-0.0031201745033388444
-0.00224057934125518
-0.0015761873754288468
-0.0010859724694702079
-0.0007327077987624756
-0.0004840629071192657
-0.00031309834472593767
-0.0001982299431466172
-0.00012279264178555318
-7.435526415107986e-05
-4.3917616779778e-05
-2.5037340767615424e-05
-1.2653285874942732e-05
-5.380468155647471e-07
-1.1910078263973827e-08
-1.6371079393885002e-06
-6.824908684899471e-06
-1.9425372057953746e-05
-4.556849709004863e-05
-9.416799161042591e-05
-0.0001772675370310049
-0.0003101472868764751
-0.0005111454785183636
-0.000801189356606395
-0.0012030691576857045
-0.001740521434179278
-0.0024372085091744745
-0.0033156873204028946
-0.004396454160123295
-0.005697134832688405
-0.007231866680725599
-0.009010894084999495
-0.011040376108172871
-0.013322386516833618
-0.015855073818141916
-0.018632942385190084
-0.02164721454732787
-0.024886236484742412
-0.028335896477994414
-0.031980031160184316
-0.03580080276055636
-0.03977903707897055
-0.0438945175767918
-0.04812623528247108
-0.05245259718265738
-0.05685159754571145
-0.06130095743089441
-0.06577823772863581
-0.07026093069965444
-0.07472653434278703
-0.07915261318641544
-0.08351684838167298
-0.0877970793493248
-0.09197133873345086
-0.09601788205527817
-0.09991521323452446
-0.10364210703941906
-0.10717762952354778
-0.1105011575930031
-0.1135923990110268
-0.11643141438563577
-0.11899864300156901
-0.12127493476006722
-0.12324159099133719
-0.12488041751871701
-0.12617379409027812
-0.12710476515190988
-0.12765715789514367
-0.12781573452125317
-0.12756638662420888
-0.12689638035407916
-0.12579466135406503
-0.12425222806602465
-0.12226258049623191
-0.11982224850016295
-0.11693139865324637
-0.11359451146605555
-0.10982111089659856
-0.10562651593736268
-0.10103257009216614
-0.09606828997598851
-0.09077036090778666
-0.0851833977088699
-0.07935988591433382
-0.07335972524039677
-0.06724931578717551
-0.06110015897365817
-0.0549869881519351
-0.04898549394941117
-0.043169759731579244
-0.037609564796075454
-0.03236773920489037
-0.027497759626430633
-0.023041759826339936
-0.01902909677672076
-0.015475570821246214
-0.012383352756342733
-0.009741625810974076
-0.007527906084613702
-0.005709958567384417
-0.004248176411899019
-0.0030982425764660114
-0.0022138550487611906
-0.0015492822904326201
-0.0010615344021202985
-0.0007119896888565869
-0.00046739696993565016
-0.00030026357567024026
-0.00018871679180059903
-0.00011597401846272767
-6.955539053689513e-05
-4.027239561903252e-05
-2.060943038643264e-05
-8.725694106235487e-07
-2.1854006513767563e-08
-2.7327511077138303e-06
-1.0963178489970677e-05
-3.0190851514435688e-05
-6.878037366752278e-05
-0.00013842960387036864
-0.0002543709183298223
-0.000435253178750207
-0.0007026879265106537
-0.0010804919638105264
-0.0015936995949995779
-0.0022674445576529516
-0.003125821067700296
-0.004190826210436701
-0.0054814657973789194
-0.007013078023097788
-0.008796899284032936
-0.01083986903779092
-0.013144648822254764
-0.01570981612609105
-0.018530186843280422
-0.021597219594700453
-0.024899459655494987
-0.028422987763757804
-0.03215184799032782
-0.03606843772884106
-0.04015385074333589