# vtk DataFile Version 4.1 
COMMENT
ASCII
DATASET STRUCTURED_POINTS 
DIMENSIONS 100 100 1 
ORIGIN 0 0 0
SPACING 0.12693303650867893 0.12693303650867893 0 
POINT_DATA 10000
SCALARS U double 1
LOOKUP_TABLE default
0.0
0.0
0.0
0.0
0.0
0.0
0.0
0.0
0.0
0.0
0.0
0.0
0.0
0.0
0.0
0.0
0.0
0.0
0.0
0.0
0.0
0.0
0.0
0.0
0.0
0.0
0.0
0.0
0.0
0.0
0.0
0.0
0.0
0.0
0.0
0.0
0.0
0.0
0.0
0.0
0.0
0.0
0.0
0.0
0.0
0.0
0.0
0.0
0.0
0.0
0.0
0.0
0.0
0.0
0.0
0.0
0.0
0.0
0.0
0.0
0.0
0.0
0.0
0.0
0.0
0.0
0.0
0.0
0.0
0.0
0.0
0.0
0.0
0.0
0.0
0.0
0.0
0.0
0.0
0.0
0.0
0.0
0.0
0.0
0.0
0.0
0.0
0.0
0.0
0.0
0.0
0.0
0.0
0.0
0.0
0.0
0.0
0.0
0.0
0.0
-9.28625815121392e-13
4.5547736424424965e-10
5.080453302905624e-09
2.8987467656706755e-08
1.1870322702349164e-07
3.935747929463042e-07
1.1215568348492938e-06
2.844618697568824e-06
6.569036254505339e-06
1.4032606021686688e-05
2.8053800282508753e-05
5.2957257344571733e-05
9.505677582077272e-05
0.00016316288578214027
0.0002690692825038933
0.00042796316729453663
0.0006587007177837312
0.0009838916608013854
0.0014297464619042926
0.0020256552168061814
0.0028034873266772338
0.003796623278949964
0.005038751919019809
0.006562486179860523
0.008397865440251853
0.010570822227989487
0.013101694302399375
0.016003860367879503
0.019282569509235306
0.022934022056709646
0.026944744387353125
0.03129128361627524
0.03594023159780449
0.04084857230098804
0.04596433331901348
0.05122751157705284
0.05657123547184708
0.06192312069487695
0.0672067746304987
0.07234340409912385
0.07725348285957284
0.08185843818379047
0.08608231947073418
0.08985341582037865
0.09310579336241263
0.09578072663787963
0.0978280012794506
0.09920706755030546
0.09988802601583815
0.09985242787318248
0.09909387347400687
0.09761839362304589
0.09544459959648921
0.092603589705921
0.08913860268087852
0.08510441096646637
0.08056644978251021
0.07559967984494667
0.0702871824639574
0.06471848527349389
0.05898761613792484
0.053190884368691536
0.04742439638699852
0.04178133235951195
0.03634904520903626
0.031206094411871877
0.026419388677556693
0.02204167093081632
0.018109616562144822
0.014642810574182584
0.011643805852417052
0.009099342267250093
0.00698264276019176
0.005256533679386049
0.0038770063560007936
0.0027967826534159566
0.0019684852998410034
0.00134713190974279
0.000891832395095594
0.0005667247112831108
0.00034129280168633823
0.00019025426894848192
9.319053569356329e-05
3.404415504997161e-05
5.557589708335722e-07
-1.6322745622276843e-05
-2.301625777030952e-05
-2.3892743672726862e-05
-2.1780894374094697e-05
-1.8414338446442686e-05
-1.4787137068212189e-05
-1.1418850096638917e-05
-8.539527944014526e-06
-6.211775878424219e-06
-4.407937495311615e-06
-3.0572191029333263e-06
-2.0723402781464705e-06
-1.357675936973013e-06
-7.813294660814114e-07
-3.4087009125829066e-08
-1.901355490553553e-12
1.5829101361283254e-09
1.4248432851723116e-08
7.167802485855014e-08
2.674100236526759e-07
8.215893966793727e-07
2.1921648233845897e-06
5.242656927591433e-06
1.1473884752767513e-05
2.3318605867156323e-05
4.448663752452368e-05
8.03352983191202e-05
0.00013822816692025621
0.00022783658057978166
0.0003613350181420517
0.0005534447505041624
0.000821290033380235
0.0011840466732028646
0.0016623820850526004
0.0022777064657236337
0.00305127376961741
0.004003186438298968
0.005151367571274797
0.006510567548639798
0.008091469019690219
0.009899945432895952
0.011936515262630601
0.014196018477815157
0.016667525360621296
0.019334472132514918
0.022175004279632184
0.02516249788335829
0.028266222118443457
0.0314521024451311
0.034683543631403996
0.03792227409920582
0.041129177558527956
0.04426508378984622
0.04729149709505144
0.05017124777000961
0.05286905847282501
0.055352023201568144
0.057590001497713005
0.0595559343011289
0.06122609052576408
0.06258025489274648
0.06360186789003262
0.06427812800927922
0.06460006477392005
0.06456258871459752
0.06416452165593818
0.06340860785502882
0.06230150420726168
0.06085374653889556
0.059079689566065116
0.05699742084409215
0.054628653878345416
0.05199861156399053
0.04913591613603905
0.04607250251296382
0.042843564296482416
0.03948752232224046
0.03604597367903352
0.03256353845489743
0.029087482353135876
0.02566697178579232
0.022351832381929657
0.01919074588036784
0.0162289352758381
0.01350553595149661
0.011050993916140757
0.008884922457246015
0.007014841893172548
0.005436104349550895
0.004133085210374529
0.0030814615533203402
0.0022511729849188605
0.001609541993443447
0.0011240538463556942
0.0007644447187676787
0.0005039624574472168
0.00031987071302344393
0.00019340178593339494
0.00010940115715442269
5.58629816476046e-05
2.3472647395384048e-05
5.19425006551069e-06
-4.105023071110983e-06
-8.011328293679925e-06
-8.906542539883857e-06
-8.285455941301034e-06
-7.0294297034100155e-06
-5.622530285923064e-06
-4.307110290120216e-06
-3.186370012756771e-06
-2.287019065917633e-06
-1.5947353200943192e-06
-1.0688536576123669e-06
-6.250823942373019e-07
-2.7991262191501765e-08
-2.005490207396743e-12
5.146916437427681e-09
4.0772425083914385e-08
1.896168684198811e-07
6.680800880444882e-07
1.9620801763388482e-06
5.0441650310242775e-06
1.1689598711809492e-05
2.489966863538839e-05
4.942575151674068e-05
9.23694220661426e-05
0.0001638148563540473
0.00027743328641992976
0.00045098847819616733
0.000706669500772055
0.0010711835177168296
0.0015755565689597674
0.0022546125653653197
0.0031461272235434917
0.004289681169807958
0.005725261736662567
0.007491683382512439
0.009624910349692577
0.012156371289084032
0.015111354233075124
0.01850756240261355
0.022353898354891287
0.02664952766822509
0.03138325550657999
0.03653323162654664
0.04206698299826723
0.047941759148560616
0.054105164154808566
0.0604960411277653
0.06704556993926312
0.07367853658478296
0.08031473249441883
0.08687044382578601
0.09325999378408573
0.0993973048410217
0.10519745194172939
0.11057818203887239
0.1154613792848648
0.11977445871909494
0.12345167413312702
0.126435327851874
0.1286768713331933
0.13013788568712015
0.13079093039743805
0.13062024667585578
0.12962229904080444
0.12780613505672642
0.12519353906759942
0.12181895189336515
0.11772912592974355
0.11298248546889908
0.1076481672899608
0.10180472865695671
0.09553853021313152
0.08894182972872353
0.08211065648281618
0.07514256913155386
0.06813442301908128
0.06118027552291944
0.05436953201925218
0.04778537930974675
0.0415034779858692
0.03559081253629429
0.03010455811134473
0.02509084324466381
0.02058337974079027
0.016602078078605323
0.013151923231405484
0.010222488149243451
0.007788452811580974
0.005811351742887707
0.004242519299626411
0.0030269149415732264
0.0021072870305946815
0.0014280530608611946
0.0009383645737345174
0.0005940504116566941
0.00035840904377450574
0.00020205566911023199
0.00010215742206000342
4.1395630035664494e-05
6.91023852081209e-06
-1.0635660920780519e-05
-1.7833007390160285e-05
-1.9163623592775344e-05
-1.75285633138984e-05
-1.4689369626261388e-05
-1.1629118533962124e-05
-8.833336733342451e-06
-6.49332574706486e-06
-4.641006461418815e-06
-3.228557568204784e-06
-2.1611887792480987e-06
-1.2617595601899511e-06
-5.53929173452605e-08
6.264483839922038e-12
1.5129244183077428e-08
1.0748976074878919e-07
4.6409775745108046e-07
1.5429994984194553e-06
4.317036469123996e-06
1.0639026046072802e-05
2.3739849647208375e-05
4.8850954276312445e-05
9.391764407942559e-05
0.00017034340333002874
0.0002936833659198861
0.00048419171009117827
0.0007671266805516772
0.001172729508976333
0.0017358187254574726
0.002494976076463553
0.0034913398216862
0.004767060274421028
0.006363506069416579
0.008319333841279994
0.010668546387792754
0.013438664324416436
0.016649124671604242
0.020309998984206573
0.024421096551889006
0.028971488177876398
0.03393945622504905
0.039292849644844655
0.04498980050607818
0.0509797422610578
0.057204660016114725
0.0636004991655547
0.07009866017646674
0.07662751304729286
0.08311387383656164
0.08948439649913932
0.09566684500655988
0.10159122246387614
0.10719074496642576
0.11240265776891105
0.11716889965794107
0.12143662807886128
0.12515862254306617
0.12829358719358322
0.13080637524472943
0.13266815846333194
0.13385656404043558
0.13435579919422716
0.13415678067277276
0.13325728194649666
0.13166210518326452
0.12938327792497084
0.1264402655920116
0.12286018053115912
0.11867795663383886
0.1139364465249676
0.10868638774711588
0.10298617798955575
0.09690140071039606
0.09050405489356902
0.08387146814544494
0.07708490961072266
0.07022796225785526
0.06338475193416722
0.05663814929055013
0.05006804820612048
0.043749777200231564
0.03775262926979762
0.032138426891811726
0.026960007983837873
0.0222595559489946
0.01806681092999121
0.014397364001172518
0.011251392057644888
0.00861326510823462
0.00645239305815382
0.004725466861595648
0.003379940867580337
0.0023582977550187715
0.0016024417518739282
0.001057549999555762
0.0006748784289854326
0.0004133020391504238
0.00023966737607636107
0.00012825247244474113
5.9716507208790385e-05
1.9884888614555353e-05
-1.3957247251943124e-06
-1.1222894502182693e-05
-1.440847070693335e-05
-1.4083576254920059e-05
-1.2176321645893835e-05
-9.788791318337061e-06
-7.487316173135116e-06
-5.514266176793332e-06
-3.92899325725051e-06
-2.6808986015309032e-06
-1.5854072105338518e-06
-6.986292458158777e-08
4.962507846797463e-11
4.1036422169782235e-08
2.663322116311768e-07
1.0778641670775211e-06
3.4038194223286575e-06
9.119765442844376e-06
2.164429675812096e-05
4.670642682810616e-05
9.324947703934554e-05
0.00017440122235656418
0.00030840939413846085
0.0005194219616082026
0.0008379878082202156
0.0013011675078339082
0.0019521746208051897
0.0028395110565659263
0.004015609365975835
0.00553504337330069
0.0074524099113324315
0.009820013720950956
0.012685502118311104
0.01608959542006719
0.02006404498303538
0.02462992617393339
0.029796342551668017
0.0355595840634444
0.0419027497491263
0.048795817142163266
0.056196118099548296
0.06404916505245964
0.0722897626460359
0.08084333677337052
0.08962741501948497
0.09855319822519629
0.10752717095052244
0.11645270787511189
0.12523164263744677
0.13376577454708324
0.1419582965104401
0.14971513411345702
0.15694619100271437
0.16356649952820745
0.16949727816698718
0.17466689869221214
0.17901176655431755
0.18247711765915375
0.1850177338006751
0.18659857754783513
0.18719534549031347
0.1867949364947058
0.18539582908336186
0.18300835928900316
0.17965488741787936
0.17536983911182785
0.17019960294764225
0.1642022635515842
0.1574471458971056
0.15001414336945465
0.14199280005917844
0.1334811180646546
0.12458406570274864
0.11541177544521763
0.10607744385229888
0.09669498059707976
0.08737649675439116
0.07822976527764788
0.06935581525000648
0.06084682049096475
0.05278440150462824
0.04523837912895545
0.03826591799851313
0.03191091382259191
0.026203451641877592
0.02115922070746601
0.016778911761701546
0.013047800547753452
0.009935863509594627
0.007398802294851259
0.005380231534644984
0.0038150284387337007
0.002633532684663219
0.0017660320062138708
0.0011468683039432851
0.0007175887266789696
0.00042880998719329
0.00024077061674231934
0.00012281004316987195
5.2161170394632294e-05
1.24558432724406e-05
-7.746780569151728e-06
-1.623096017797564e-05
-1.8135694139057636e-05
-1.672432457612744e-05
-1.3960135225576778e-05
-1.0934573454978702e-05
-8.181305060942048e-06
-5.89503434961143e-06
-4.0561751002914286e-06
-2.4106333091514112e-06
-1.0555609419567727e-07
2.071266231692215e-10
1.0375924607169805e-07
6.227688321461001e-07
2.377495996007121e-06
7.158944320860422e-06
1.8414899763753796e-05
4.216160333258653e-05
8.808355461786702e-05
0.00017073642042543717
0.00031072486195046555
0.0005356980553879784
0.0008809981344702559
0.0013898140613555876
0.002112734115362348
0.0031066485297038212
0.004433021072490077
0.0061556146890720245
0.008337812561680034
0.0110397151943049
0.014315212599548155
0.018209227853789044
0.022755306599319507
0.02797369100008078
0.033869971800450364
0.04043436424232698
0.047641607783244146
0.05545144979845524
0.06380964232440371
0.07264935960232366
0.08189293269242319
0.09145379481132954
0.10123853575855354
0.11114897401008508
0.12108416890251478
0.1309423110972591
0.1406224457622765
0.15002599852693901
0.15905808847662326
0.16762862478301374
0.17565319379326835
0.18305375149922778
0.18975914238431454
0.1957054698882814
0.2008363463604092
0.2051030516095383
0.20846462919420863
0.21088794856904575
0.2123477591956355
0.21282675975541127
0.21231570162846472
0.21081354074145775
0.208327645635766
0.20487406207276865
0.20047782563940642
0.19517330370241345
0.18900453688037952
0.18202553833542542
0.17430049724279256
0.1659038217159124
0.15691994765870224
0.14744283555757126
0.13757507997226
0.1274265699476559
0.11711266622063578
0.10675190491104042
0.09646329570676812
0.08636334796141958
0.07656301661460593
0.06716479283960139
0.05826015436736492
0.04992752969152508
0.04223082861568379
0.03521847894810465
0.028922829116148793
0.02335976934568529
0.018528505794822993
0.014411569203666815
0.010975290683326411
0.00817105431969611
0.005937580372061525
0.004204296566061003
0.0028955740575823882
0.0019353395384938427
0.001251428594809045
0.0007790772399352838
0.0004631480264862928
0.000258980288788009
0.00013203846112845154
5.672194143653833e-05
1.47567773933256e-05
-6.4702384473951e-06
-1.5398933542935684e-05
-1.7499708825091212e-05
-1.618703937113657e-05
-1.3486450955405272e-05
-1.0510758397563926e-05
-7.78922409057729e-06
-5.463001824690892e-06
-3.2820720788852663e-06
-1.4347502837780507e-07
6.840057505185456e-10
2.464932669077067e-07
1.3810605792716096e-06
4.999987825984759e-06
1.440697821620585e-05
3.5673166282418765e-05
7.895614627310912e-05
0.00015998157227884314
0.0003015311104931282
0.0005347384895465357
0.0008999815955906504
0.001447178212990418
0.0022353445568421967
0.00333135137959994
0.004807900066915861
0.006740827087227575
0.009205916897235874
0.012275451709124826
0.016014746685508008
0.020478911124209194
0.025710044001994774
0.03173502257558481
0.0385639835637066
0.046189535613046846
0.05458668595530243
0.06371341822317918
0.07351182506431124
0.08390967926410631
0.09482231974257618
0.10615473207717756
0.11780371454521175
0.12966003731494347
0.1416105217496531
0.15353998662645515
0.16533302673298414
0.17687560565626978
0.18805645799004433
0.1987683064515394
0.20890890662807712
0.21838193659438376
0.2270977509025251
0.23497401894224254
0.24193626688324205
0.24791834077590033
0.2528628062636104
0.25672129802689586
0.2594548297302621
0.26103407299008863
0.2614396117621233
0.26066217652638785
0.2587028606267345
0.2555733189451522
0.25129594655217324
0.2459040318371608
0.23944187464129935
0.23196485487548177
0.2235394308640185
0.21424303920910948
0.2041638595359453
0.1934003986088077
0.1820608400700847
0.17026210023955232
0.1581285297327645
0.14579020873616663
0.1333808046518334
0.1210349976996729
0.10888553323809527
0.09706002401514613
0.0856776893476094
0.07484626329758187
0.06465931065042847
0.05519414474267321
0.046510447269478124
0.03864957020956334
0.03163439448982595
0.02546957315368843
0.02014202573409599
0.015621667117570457
0.011862500275363279
0.00880430499096124
0.006375148352079781
0.004494802786933548
0.003078918991764136
0.002043549565639215
0.001309454544175769
0.0008056120756632896
0.0004715141319342289
0.00025809215706733393
0.00012739781781980313
5.1371200331356863e-05
1.0113977856720082e-05
-9.949065664953354e-06
-1.774808397921589e-05
-1.8946514565402364e-05
-1.699009396201392e-05
-1.3862009087184984e-05
-1.0598722046697393e-05
-7.5949264588558285e-06
-4.619353644730173e-06
-2.0110213696474389e-07
1.962398646969137e-09
5.534849095332797e-07
2.915844039199852e-06
1.0054547940797894e-05
2.7805209961552673e-05
6.641924172420961e-05
0.00014235552537084905
0.00028013012389592777
0.0005139756499747158
0.0008890368949097342
0.0014618491973506617
0.0022999097021131746
0.0034802490146750944
0.005087025390627934
0.007208276695180291
0.009932059659204712
0.013342268829621204
0.017514452795722942
0.022511933037796895
0.028382486828544346
0.035155789381910135
0.04284173276487054
0.05142966044382493
0.06088848538152433
0.07116760234902439
0.08219846473161323
0.09389667315084131
0.10616441622049103
0.11889310988068537
0.13196609752874205
0.1452612950239624
0.1586536893645593
0.17201762479515742
0.18522883338503232
0.19816618749875314
0.21071316844950042
0.22275905884921904
0.23419987595780728
0.24493907010437263
0.254888016525736
0.26396633127591523
0.27210204269988963
0.2792316497554724
0.28530009753796737
0.2902606989485158
0.2940750296942527
0.2967128217809756
0.2981518783507368
0.29837803006098196
0.29738515008229416
0.2951752410537773
0.2917586027988972
0.28715408408286014
0.28138941501322473
0.27450160872199075
0.2665374116764778
0.2575537714311625
0.24761827910959017
0.23680953187062043
0.2252173488110902
0.21294276326083714
0.20009770672522573
0.18680429684947153
0.17319364638726661
0.15940412553503908
0.14557903962540705
0.13186373067928928
0.11840217462073174
0.10533322101782944
0.0927866972818897
0.08087965621909833
0.06971306399693156
0.05936918916324455
0.04990986053091396
0.04137563115540612
0.03378575522233647
0.02713880017005769
0.021413711909041355
0.016571229769169582
0.012555673832348638
0.009297235771139263
0.006714929164765611
0.004720262403751151
0.003221506150112107
0.002128207571493381
0.0013554461873459575
0.0008273021360225665
0.00047913522634865103
0.00025851018462141255
0.00012486830096064777
4.8253861959844795e-05
7.502442092341377e-06
-1.1718657288519607e-05
-1.872607228768222e-05
-1.932927335061812e-05
-1.69828482618829e-05
-1.3600089935004468e-05
-1.0047250570312917e-05
-6.2179735311191354e-06
-2.6987758743562376e-07
5.085233934906262e-09
1.1804069861181398e-06
5.881020937454964e-06
1.9385129828900297e-05
5.1583010783835404e-05
0.00011910290166194889
0.00024758220795208
0.0004737764926189964
0.000847158265043848
0.001430674177089001
0.002300405750807293
0.003544002452099181
0.005257904687684735
0.007543522254057429
0.010502656996008313
0.014232539530278455
0.01882088040985935
0.02434131679267511
0.03084957487510002
0.03838057927767714
0.046946638292228886
0.0565367326187362
0.0671168463257359
0.07863120979750038
0.09100427889132556
0.10414325237026699
0.11794092817223668
0.13227871383999923
0.14702963239625413
0.1620611971344956
0.17723806289179925
0.19242439401205075
0.20748591808654498
0.22229165835385228
0.2367153558672055
0.2506366053423162
0.26394173655298364
0.2765244770563539
0.2882864328035729
0.29913742170442564
0.3089956922561902
0.31778805558010975
0.3254499551565066
0.3319254945992065
0.3371674402271792
0.34113721213752307
0.343804875032784
0.34514913820652576
0.3451573727773088
0.34382565335293847
0.3411588306100393
0.33717064052775775
0.3318838548904195
0.32533047578293584
0.31755197371344107
0.30859956427413665
0.2985345115116771
0.2874284371758459
0.2753636037369274
0.26243312583770984
0.24874105045601885
0.23440223183012368
0.21954191511599538
0.20429493548677166
0.1888044403544403
0.17322005555052833
0.1576954456318444
0.14238526686900665
0.1274415789153998
0.11300986252156263
0.09922487402302134
0.0862066341540584
0.07405687738320374
0.06285626077386386
0.05266254365218502
0.04350981629865172
0.03540871258422634
0.028347433192724838
0.022293370181345265
0.017195170566016476
0.01298517993463924
0.009582310460638102
0.006895418732742308
0.004827219913577048
0.0032786151323976665
0.002153125181071676
0.0013609855622220147
0.0008224325336510548
0.0004698192060605393
0.0002484126769558815
0.00011596667646499389
4.1361973648755884e-05
2.7069270965318176e-06
-1.471714065085597e-05
-2.0368981142572514e-05
-2.0042512289951754e-05
-1.7070733578312764e-05
-1.3100966032217968e-05
-8.283221186727537e-06
-3.5816049565750993e-07
1.2153379230157989e-08
2.4006674076601192e-06
1.1364903527496156e-05
3.592000412112902e-05
9.217606522084165e-05
0.00020607854722094472
0.00041605965096653847
0.000775156166731836
0.0013521616797887218
0.002231468838250308
0.0035114116205065896
0.005301108959591474
0.007716004362922408
0.010872458226919526
0.014881856191051476
0.01984473641602733
0.025845412269199737
0.032947486236226876
0.04119053421728449
0.05058810721464944
0.06112706873025163
0.07276817572521788
0.08544772801541409
0.09908005919083665
0.11356062052148731
0.12876941341921455
0.14457454951369905
0.16083575333867273
0.17740766453092513
0.19414283895781118
0.21089438738198588
0.22751822368507263
0.2438749211474045
0.25983119468974875
0.27526103991401035
0.29004656724661304
0.304078572682909
0.31725688674170954
0.3294905413299143
0.3406977911630975
0.3508060228526712
0.3597515812151564
0.3674795390689164
0.37394343390194495
0.3791049923586242
0.38293386146864
0.38540736384506585
0.38651029260063063
0.3862347603436523
0.3845801151776847
0.38155293498678233
0.37716710926694286
0.3714440151624598
0.3644127909500406
0.35611070571826287
0.34658361812993144
0.3358865096528985
0.3240840682824107
0.31125128746904285
0.2974740318541182
0.282849506983683
0.26748655536446136
0.25150568754870334
0.23503874655061816
0.21822809966545706
0.20122525719773796
0.18418883663730132
0.16728182719200826
0.1506681656921641
0.1345087100186556
0.11895678450086897
0.10415356061741365
0.09022360688856325
0.07727097223717765
0.06537613940825528
0.05459409393149371
0.04495361356145695
0.03645772680973574
0.029085161590118286
0.022792544679462037
0.017517134052518393
0.013179949194403321
0.009689260021218475
0.006944445519721324
0.004840200864513473
0.0032709596361536987
0.002135251750001006
0.0013396068111876775
0.0008015965451700921
0.00045171056847148773
0.00023395086635495343
0.000105250415404326
3.400159887313909e-05
-1.927212435028791e-06
-1.7313867102435577e-05
-2.1548439197822622e-05
-2.0248891849095805e-05
-1.638517425077088e-05
-1.0650563189125828e-05
-4.589029833636152e-07
2.713946574692772e-08
4.671990808083382e-06
2.1098634007167238e-05
6.411062534568795e-05
0.0001589680109170541
0.00034466524181458726
0.0006767087759466447
0.001228821019812429
0.0020931056966967797
0.0033783980753761735
0.00520676772869195
0.007708393676531417
0.011015245995046143
0.015254150184664372
0.02053986404746328
0.026968762775864377
0.034613622336726525
0.04351983905394742
0.05370325243042234
0.06514957412901609
0.07781528799266685
0.09162978562744103
0.10649844334675797
0.1223063267969552
0.138922222612653
0.1562027329784595
0.17399621955926697
0.1921464393796816
0.210495770090356
0.228887970917334
0.24717046571428222
0.26519616489487735
0.28282486386726624
0.29992426802375527
0.31637069990728717
0.3320495445702226
0.34685548596634963
0.36069258186354847
0.37347421834428074
0.38512297830001024
0.3955704519893074
0.4047570120670121
0.41263157068658585
0.41915133239501623
0.4242815535674766
0.42799531700979077
0.43027332900734466
0.4311037454218612
0.43048203332123164
0.428410874942382
0.4249001213718934
0.4199668039765643
0.41363521205720954
0.4059370450897773
0.3969116468352141
0.3866063260504749
0.3750767639848871
0.3623875017828537
0.3486124909239271
0.3338356767244518
0.31815156887408286
0.30166573467152397
0.2844951313963405
0.26676817620572135
0.24862443797964195
0.23021382931833384
0.21169518266040338
0.19323411663332957
0.17500014103808806
0.15716301317007406
0.1398884426942805
0.12333333968800432
0.10764089668196943
0.09293587051979253
0.07932046129071055
0.06687115569493461
0.055636806028524326
0.04563806766672507
0.036868150802104
0.02929470016072993
0.02286253809602403
0.017497008098767846
0.013107721561598352
0.009592597152887692
0.006842137063087717
0.004743871808212557
0.003186825001393329
0.0020657393008754223
0.0012847233213144848
0.000759977996472875
0.00042135854176346123
0.00021270196214073916
9.104639139402167e-05
2.502748991701858e-05
-7.182286618776429e-06
-2.003001131169248e-05
-2.252994323407923e-05
-1.9733963557700285e-05
-1.332099602679039e-05
-5.71770591129268e-07
5.713750928149925e-08
8.726626291774182e-06
3.771887254209439e-05
0.00011044354323386729
0.0002650798652880605
0.0005581441620360301
0.0010669425284280736
0.00189025308244159
0.0031468345912787736
0.004971666091752911
0.007510150073948508
0.010910796159384133
0.015317094596543427
0.020859364707677158
0.027647323191039082
0.03576398211010815
0.045261290373524964
0.056157713286791706
0.06843773643241594
0.08205310811913552
0.09692551350376406
0.1129503072937041
0.13000091628539215
0.14793354790715854
0.16659189381765796
0.1858115857466369
0.20542423308461658
0.22526093979360562
0.24515525651163292
0.2649455694708321
0.2844769604649059
0.3036025925859476
0.3221846867502496
0.3400951565085126
0.35721596565883884
0.37343926686765044
0.3886673715749622
0.40281259319485796
0.41579699787739827
0.4275520903716522
0.4380184570360077
0.44714538379458946
0.45489046372176867
0.46121920676592987
0.4661046626910591
0.4695270674207398
0.4714735224409872
0.47193771661873946
0.4709196996187794
0.46842571597755034
0.46446810875409017
0.4590653014555514
0.45224186652594833
0.4440286879337108
0.4344632240571455
0.42358987480996135
0.41146045333384834
0.3981347570954539
0.3836812253212339
0.36817765891877036
0.35171196511292
0.33438287210254697
0.31630053983249135
0.2975869729522695
0.27837612357089436
0.2588135578283263
0.23905555574307613
0.21926752296012572
0.19962162056781665
0.18029356871182287
0.16145865250003738
0.143287051640139
0.12593871944887847
0.10955813669986167
0.09426934017161757
0.08017165234254926
0.0673365006471544
0.05580560868573543
0.045590683315496386
0.03667454448578791
0.029013492394522625
0.022540616772053827
0.017169742142673312
0.012799757078098842
0.009319155511200026
0.006610676620624374
0.004555933619462201
0.003039869382075762
0.0019547997619014873
0.0012037531932594582
0.0007028305098146488
0.0003824063944193197
0.0001871524368947076
7.503477093188026e-05
1.5576248104678706e-05
-1.2256669371462351e-05
-2.217126443095386e-05
-2.2284422519752884e-05
-1.5921676098626488e-05
-6.8089664685073e-07
1.141668547429229e-07
1.5686364091092912e-05
6.50772121513881e-05
0.00018399086254235374
0.00042812365969557826
0.0008765465837512689
0.0016331638968859038
0.0028256047925645598
0.004601344716492208
0.007121277484900234
0.010551338126530252
0.015053040200027868
0.020773903098535315
0.027838702592826628
0.036342308891893126
0.04634462622994524
0.057867867416503765
0.07089613177930146
0.0853770391913685
0.10122502505053994
0.11832582542841738
0.13654167105075615
0.1557167490548622
0.1756825652959771
0.19626293040645076
0.2172783855692512
0.2385499686009806
0.2599022910546437
0.2811659498733489
0.302179332692041
0.3227898961266414
0.3428550042698392
0.36224241342195634
0.3808304819494131
0.3985081737427374
0.4151749121016804
0.43074032945601304
0.445123948039041
0.45825481792758543
0.470071131883142
0.48051983109608853
0.48955621204833233
0.4971435420193164
0.5032526890144755
0.50786177087182
0.5109558278239085
0.5125265227290824
0.512571873450967
0.5110960224040797
0.508109049058637
0.5036268321706333
0.49767096961328106
0.4902687648271934
0.48145328990429975
0.47126353590719705
0.4597446608242325
0.4469483440763208
0.43293325312432634
0.4177656218111239
0.40151993096006994
0.38427966893079535
0.3661381331019402
0.3471992129208615
0.32757807227420965
0.30740162545264677
0.286808679905714
0.26594960433019654
0.24498537724992853
0.22408588433458784
0.20342736705841916
0.18318898411493398
0.1635485303413176
0.14467746096491643
0.1267354806983488
0.10986506001070864
0.09418631261663808
0.07979268672215734
0.06674787272153206
0.05508421106152269
0.044802713877694696
0.03587462786550576
0.028244306660745448
0.021833064993091598
0.0165436691273719
0.01226516551830108
0.00887782591112419
0.006258049115906379
0.0042830776023491356
0.0028353590120060597
0.0018063353344727599
0.0010994171953156288
0.0006319320379680155
0.0003359328748170618
0.00015789887220526123
5.7510827611147e-05
5.805599090828821e-06
-1.690698712384538e-05
-2.2898570260043027e-05
-1.797170878866236e-05
-7.658262834897914e-07
2.1762251646262134e-07
2.72000171057883e-05
0.0001085774225155903
0.00029694274298481816
0.000670804703677273
0.0013370449279216693
0.0024305097875608047
0.004110247924513875
0.006552559793353703
0.00994153070567487
0.014458084365382465
0.02026876290540402
0.02751540407389288
0.03630668031744477
0.04671214824238839
0.058759099033532436
0.07243216285286021
0.08767534822339179
0.10439601529825426
0.12247019435395366
0.1417486571798952
0.1620632092540572
0.1832327711237101
0.20506893574332685
0.22738080623137105
0.24997902264738012
0.2726789695951412
0.2953032161672716
0.3176832769883375
0.3396608011858049
0.36108829941210996
0.38182951212831945
0.4017595093777897
0.4207645965929473
0.43874208506652956
0.45559997120307644
0.4712565564418771
0.4856400301410311
0.49868803067292505
0.5103471952006908
0.5205727056587077
0.5293278368916416
0.5365835122873718
0.5423178722040212
0.5465158607540698
0.5491688368665386
0.5502742158768454
0.5498351481375244
0.5478602413011986
0.5443633330402663
0.5393633210981696
0.5328840577784973
0.524954316310152
0.5156078369648562
0.5048834612454239
0.4928253626865197
0.47948338244041855
0.464913476319926
0.4491782766451914
0.4323477662906246
0.4145000529468874
0.3957222181481547
0.3761111977831076
0.3557746289506861
0.33483157336752134
0.3134130024167791
0.29166190689443755
0.2697328802450877
0.24779102308648265
0.22601003477404122
0.20456939948850777
0.18365064245439236
0.16343272514434035
0.1440867599117349
0.12577034109310609
0.10862189175769302
0.09275548996607948
0.07825664432239
0.06517942310713963
0.053545206987289755
0.043343153336945245
0.03453226721692468
0.027044812406768357
0.02079069951530124
0.01566246986322111
0.011540539805361282
0.008298446134636043
0.005807899739020897
0.003943485322826217
0.002586838214034077
0.0016301078584004167
0.0009785157920813154
0.0005518609012664045
0.00028492255137866387
0.00012684509942576403
3.9726432348997273e-05
-3.2376773879821455e-06
-1.955671662824976e-05
-1.847504456113766e-05
-7.850055384077792e-07
3.974049147807877e-07
4.559638748376712e-05
0.00017550940965104913
0.0004650472208805097
0.0010212430026094656
0.0019837729066941603
0.003521666313522361
0.005826044092799456
0.00909959709851589
0.013544026955234028
0.019346930465462105
0.026669597490924665
0.035636949589623663
0.046330451606502863
0.05878437318732489