# vtk DataFile Version 4.1 
COMMENT
ASCII
DATASET STRUCTURED_POINTS 
DIMENSIONS 100 100 1 
ORIGIN 0 0 0
SPACING 0.12693303650867893 0.12693303650867893 0 
POINT_DATA 10000
SCALARS U double 1
LOOKUP_TABLE default
0.0
0.0
0.0
0.0
0.0
0.0
0.0
0.0
0.0
0.0
0.0
0.0
0.0
0.0
0.0
0.0
0.0
0.0
0.0
0.0
0.0
0.0
0.0
0.0
0.0
0.0
0.0
0.0
0.0
0.0
0.0
0.0
0.0
0.0
0.0
0.0
0.0
0.0
0.0
0.0
0.0
0.0
0.0
0.0
0.0
0.0
0.0
0.0
0.0
0.0
0.0
0.0
0.0
0.0
0.0
0.0
0.0
0.0
0.0
0.0
0.0
0.0
0.0
0.0
0.0
0.0
0.0
0.0
0.0
0.0
0.0
0.0
0.0
0.0
0.0
0.0
0.0
0.0
0.0
0.0
0.0
0.0
0.0
0.0
0.0
0.0
0.0
0.0
0.0
0.0
0.0
0.0
0.0
0.0
0.0
0.0
0.0
0.0
0.0
0.0
9.616854925500306e-14
-4.716926519228428e-11
-5.645762713872289e-10
-3.4006808101677667e-09
-1.4627700345501324e-08
-5.0823310855818774e-08
-1.515474161809155e-07
-4.0178076795981085e-07
-9.69033234291419e-07
-2.1603770438600217e-06
-4.504518711358194e-06
-8.862945852296204e-06
-1.6572043126669512e-05
-2.9614907612068524e-05
-5.0817643307544514e-05
-8.406058809579674e-05
-0.00013449075637578383
-0.00020871833884663797
-0.0003149779085515556
-0.00046323442573183686
-0.0006652154052042306
-0.0009343536792549246
-0.0012856298139525735
-0.0017353090018581228
-0.0023005736327028035
-0.002999059169574266
-0.0038483068954905547
-0.004865152095839953
-0.006065069985280117
-0.007461503998617129
-0.009065201914065379
-0.010883584761642305
-0.012920171785530342
-0.015174082137713105
-0.017639630771223432
-0.02030603246300101
-0.023157224289059693
-0.02617181341285146
-0.02932315388893989
-0.03257955342476392
-0.03590460871975321
-0.0392576660947952
-0.042594402570257116
-0.04586752124366198
-0.04902755362698503
-0.052023760379344794
-0.054805120458373574
-0.05732139696324683
-0.05952426572321714
-0.0613684898984143
-0.0628131204506586
-0.06382269831339547
-0.06436842950751125
-0.06442929944479342
-0.06399308742650738
-0.06305723713523141
-0.06162953406190199
-0.05972853675523696
-0.057383706191170544
-0.054635177458583574
-0.05153312187617304
-0.04813665769009527
-0.044512286122184636
-0.04073185898717905
-0.036870125320957736
-0.03300195572555695
-0.029199398793423422
-0.025528774112183704
-0.02204803805698117
-0.01880465910083288
-0.01583420065887116
-0.013159732520967004
-0.010792088845460653
-0.008730882878696729
-0.0069661006738386076
-0.005480047703481409
-0.004249420809733975
-0.0032473161165826993
-0.0024450429166973653
-0.001813672775334665
-0.001325296705047115
-0.0009539868410041942
-0.0006764684101085659
-0.0004725133058990759
-0.0003250762520092239
-0.00022020978157340129
-0.0001468103268460563
-9.625764676838873e-05
-6.200905960447727e-05
-3.919877493091296e-05
-2.4275470686257203e-05
-1.4693952070972337e-05
-8.663602345913224e-06
-4.948884318947454e-06
-2.7144168730287867e-06
-1.4071213810944029e-06
-6.688676480109089e-07
-2.7393333354587084e-07
-8.456813067320539e-08
-3.6894482637001865e-09
1.83548434797126e-13
-1.5293226011265863e-10
-1.4470468972139518e-09
-7.62238686068654e-09
-2.9742412370961548e-08
-9.55261785820012e-08
-2.6635116253195965e-07
-6.654293415454995e-07
-1.5208209851611227e-06
-3.2264415777920568e-06
-6.422885148137031e-06
-1.2097724289769322e-05
-2.1702122512196233e-05
-3.7277446642918135e-05
-6.15825542064155e-05
-9.82100509769437e-05
-0.0001516785112481373
-0.00022748773262777674
-0.00033212566552805986
-0.0004730186040634953
-0.0006584202405587091
-0.0008972398161729724
-0.0011988143205149098
-0.0015726339879647236
-0.0020280337722029156
-0.0025738657489274477
-0.0032181683530603284
-0.00396784801197479
-0.004828387238496743
-0.005803590846035325
-0.006895378951137532
-0.008103632160050526
-0.009426091098913472
-0.010858309497561277
-0.01239365756598446
-0.014023370531523872
-0.015736635987851428
-0.01752071313943561
-0.0193610770576981
-0.02124158161588752
-0.023144635738523774
-0.025051388879764217
-0.02694192312454135
-0.028795450882305805
-0.03059051871688279
-0.032305219333676
-0.03391741503716597
-0.03540497698976595
-0.036746045263484274
-0.03791931490235122
-0.03890435294671665
-0.03968195057913222
-0.040234513243001195
-0.04054648980605468
-0.04060483965562107
-0.04039953404985993
-0.03992408500918283
-0.039176091177609104
-0.03815778476279359
-0.036876555957893895
-0.03534542025938204
-0.03358337954021727
-0.03161561081440882
-0.02947340087832617
-0.02719373669133901
-0.024818468688175756
-0.02239299510118443
-0.01996447372304021
-0.017579649303579404
-0.015282475560265749
-0.013111787171314707
-0.01109931267406929
-0.009268294072324258
-0.007632889657016941
-0.006198400918677734
-0.004962218322880329
-0.003915266044182545
-0.0030436743906341692
-0.0023304295182527946
-0.0017568259171126897
-0.001303643271096122
-0.000952049473236875
-0.0006842737274712581
-0.0004840968893053243
-0.0003371867317703868
-0.00023128532734503055
-0.00015624920079233994
-0.00010395265463964094
-6.808244764074351e-05
-4.3866268432007826e-05
-2.778057966997571e-05
-1.7274934480035248e-05
-1.0534905315970874e-05
-6.2909428372565735e-06
-3.670307615069362e-06
-2.0847226396426886e-06
-1.1459277040601673e-06
-6.018494766666866e-07
-2.817908726077677e-07
-1.234650714997426e-08
1.7663691348447506e-13
-4.5426439904728527e-10
-3.772584835497594e-09
-1.8402336518721034e-08
-6.804323809478321e-08
-2.0978512168493438e-07
-5.662300599833412e-07
-1.3775688868869923e-06
-3.079779464692377e-06
-6.414263337613922e-06
-1.2572142201566619e-05
-2.337310998976522e-05
-4.147443649009048e-05
-7.060092018548386e-05
-0.00011578191459933307
-0.0001835776681948994
-0.00028227471306786246
-0.0004220293287947333
-0.0006149393731145577
-0.0008750279310785479
-0.0012181269763000796
-0.0016616550759205745
-0.0022242895250228624
-0.002925539576398319
-0.003785233110983516
-0.00482293376307668
-0.0060573089093112495
-0.007505470940360272
-0.009182314887056139
-0.011099874906742394
-0.013266720566709193
-0.015687411546412316
-0.018362026585373854
-0.02128577947991819
-0.02444873189619124
-0.027835609892025544
-0.03142572845065161
-0.035193026102059106
-0.03910620987662094
-0.04312900939644339
-0.047220537827504384
-0.05133575662921735
-0.05542604046622719
-0.05943983819161227
-0.06332342535819616
-0.06702174313918972
-0.07047931770275077
-0.07364125283935893
-0.0764542868332813
-0.07886790205234584
-0.08083547238089439
-0.0823154293732589
-0.08327242289864381
-0.08367844629005418
-0.0835138900423917
-0.08276848265471277
-0.08144207328002481
-0.07954520959086944
-0.07709946673809559
-0.07413748999837846
-0.0707027242068113
-0.06684881557996748
-0.06263868309933378
-0.058143263957898934
-0.05343993865206797
-0.048610637319495685
-0.04373962565843794
-0.03891097614944141
-0.0342057592917388
-0.029699046522080535
-0.025456896939820752
-0.021533585094779168
-0.01796938616278318
-0.01478923484899886
-0.01200249448567954
-0.009603917350229118
-0.007575680034372599
-0.0058901933490535475
-0.004513270292745062
-0.0034072218628787387
-0.0025335366265220346
-0.0018549490129350363
-0.001336858646220058
-0.0009481803652923284
-0.0006617584408672324
-0.0004544750601038519
-0.00030714847776419895
-0.0002042794182218991
-0.00013368333336047405
-8.604305965326971e-05
-5.4422141499615005e-05
-3.3782299780128357e-05
-2.0543001520608712e-05
-1.2207697633109032e-05
-7.065366668490079e-06
-3.963049757117286e-06
-2.137736485392933e-06
-1.0927225917885144e-06
-4.94863413572256e-07
-2.1757046366887698e-08
-4.929282864040201e-13
-1.1893945237926172e-09
-8.840655794542152e-09
-4.00672710746023e-08
-1.4008474312949452e-07
-4.125394567424586e-07
-1.0705589025169075e-06
-2.5155391630552945e-06
-5.449747219883224e-06
-1.1026302613496479e-05
-2.103601883673686e-05
-3.8125277490721744e-05
-6.603324319895365e-05
-0.00010983118136655707
-0.00017614234061483206
-0.00027331860521474826
-0.00041155042639688883
-0.0006028895438903501
-0.0008611694508733694
-0.0012018158312134986
-0.001641547465265071
-0.002197976420447327
-0.0028891238208253846
-0.0037328733948191577
-0.00474638884378341
-0.0059455226450498885
-0.007344243256723877
-0.008954105107035384
-0.010783781665443538
-0.012838676827952575
-0.015120624342406446
-0.017627679545612816
-0.02035400269433312
-0.02328982895143742
-0.02642151682904444
-0.029731664678474063
-0.03319928364856235
-0.03680001533650798
-0.04050638300930354
-0.044288066633182424
-0.04811219385859163
-0.051943641417698104
-0.055745343960023404
-0.059478610052686114
-0.06310344778970707
-0.06657890508046303
-0.06986343210788197
-0.0729152755346613
-0.07569291563475673
-0.07815555844024474
-0.0802636949707102
-0.08197973834806904
-0.08326874674441496
-0.08409923530685776
-0.08444407316104152
-0.08428145220989297
-0.08359590295627481
-0.08237931973675416
-0.08063194491925882
-0.07836325070206035
-0.07559265029670424
-0.07234996923655543
-0.06867561289675823
-0.06462037678466605
-0.0602448586710879
-0.0556184423280025
-0.05081782910350838
-0.04592509747934911
-0.041025279537868685
-0.036203468947800535
-0.03154152941202266
-0.027114559178245845
-0.022987374376159043
-0.019211371981384864
-0.01582218119710119
-0.012838473042239236
-0.010262157589437815
-0.00807997768878928
-0.006266262344077566
-0.0047864037026611435
-0.0036005288990298046
-0.002666875281000253
-0.0019445223878149585
-0.0013953291163442535
-0.000985103604516728
-0.0006841488142243282
-0.0004673649105615291
-0.00031406817770867685
-0.00020763880397750315
-0.00013506638950327592
-8.643713658184687e-05
-5.4398959795759346e-05
-3.364015669225489e-05
-2.0414246163940433e-05
-1.2134369379596276e-05
-7.0473068304727145e-06
-3.983867539277651e-06
-2.170067720187983e-06
-1.058413857228247e-06
-4.62855580053777e-08
-3.3737061129763708e-12
-2.7911039916463928e-09
-1.8976120185682744e-08
-8.091359846998198e-08
-2.7002510668591693e-07
-7.657477198741951e-07
-1.924949625508402e-06
-4.400421529163334e-06
-9.304927791293755e-06
-1.8423163362551506e-05
-3.446807560833943e-05
-6.137105947886228e-05
-0.00010458852117669679
-0.00017140135492881324
-0.00027118001499095595
-0.00041558681368036496
-0.000618689123504558
-0.0008969621196318723
-0.0012691669597608263
-0.0017560989605202425
-0.002380209364565117
-0.003165112713013476
-0.004134998835174374
-0.005313973500639755
-0.006725354607219393
-0.008390951443967403
-0.010330353340948749
-0.012560251316637879
-0.015093812650375812
-0.017940124129737403
-0.021103715482703754
-0.024584170542595693
-0.028375830244441916
-0.03246758874587629
-0.036842781845091634
-0.041479165404797555
-0.046348980609562024
-0.051419102483283324
-0.056651268063849285
-0.06200238086676298
-0.06742488867314024
-0.07286723216873937
-0.07827436247223371
-0.08358832606675705
-0.08874891603977313
-0.09369438879558925
-0.09836224548228828
-0.10269007721266106
-0.10661647268685866
-0.11008198595698235
-0.11303016070529878
-0.11540860541027861
-0.11717011099608098
-0.11827379882765471
-0.11868628204389332
-0.11838281706332524
-0.11734841460351177
-0.11557887090956649
-0.11308167067017329
-0.1098767044575676
-0.10599673724243615
-0.10148756285572114
-0.09640778439028845
-0.09082817370129935
-0.08483058364657194
-0.07850641116627241
-0.07195463220613023
-0.0652794450832704
-0.058587564452385506
-0.05198520711906098
-0.04557481454323591
-0.039451580311657186
-0.033699906205702373
-0.028389996821665906
-0.023574899295154446
-0.019288362718164313
-0.015543887064846882
-0.01233522448661501
-0.00963839107636899
-0.007414989384983494
-0.005616404293739539
-0.00418829148021369
-0.003074772976995904
-0.0022218837438782303
-0.001580026361890549
-0.0011054147191829778
-0.0007606571363229965
-0.0005147120984421332
-0.0003424508145046232
-0.00022401143311757924
-0.00014406696231571427
-9.107873165182967e-05
-5.657806455900428e-05
-3.4505626900146624e-05
-2.0630899071721766e-05
-1.2066209816711026e-05
-6.878296969558404e-06
-3.7828634657243836e-06
-1.8617010626739788e-06
-8.134090410751157e-08
-1.170690771723735e-11
-5.87113222268122e-09
-3.7069587693613255e-08
-1.500670748910199e-07
-4.811279653929495e-07
-1.3203772413098423e-06
-3.227748648016202e-06
-7.200009920319808e-06
-1.4893837527491187e-05
-2.8903237439846455e-05
-5.3081186563287966e-05
-9.288641370027664e-05
-0.00015572823084580137
-0.00025127671135287345
-0.00039170340195411943
-0.0005918197061409861
-0.0008690859914231241
-0.0012434736466216615
-0.001737173585080553
-0.0023741566582984822
-0.003179602717460684
-0.004179224451724508
-0.005398518806849788
-0.006861982327109331
-0.008592327156926463
-0.010609732019058913
-0.012931157829179635
-0.015569751419343351
-0.018534353858442425
-0.02182912275175014
-0.025453271233890237
-0.029400920554365242
-0.03366105845492817
-0.0382175920771734
-0.04304948192499279
-0.04813094236220387
-0.05343169411666169
-0.05891725512490196
-0.06454925761425846
-0.07028578141856089
-0.0760816960124643
-0.08188900650353029
-0.08765720173735513
-0.09333360566419709
-0.09886373611161249
-0.1041916780345384
-0.10926048109108039
-0.11401259391708485
-0.11839034960985786
-0.12233651850021496
-0.12579494505629057
-0.12871128542568894
-0.13103386032925693
-0.13271463436745115
-0.13371032686476686
-0.13398365075854285
-0.13350466443272518
-0.13225220671359394
-0.13021536776845213
-0.1273949292559608
-0.1238046874625009
-0.11947255598394611
-0.11444133332065066
-0.10876901947381157
-0.10252857756153753
-0.09580706287414723
-0.08870408056861095
-0.08132957848798308
-0.07380102498978694
-0.06624005545504266
-0.05876869249811759
-0.05150525898936354
-0.04456012242306934
-0.03803144804984184
-0.032001202402124854
-0.026531726701324455
-0.021663259522837507
-0.017412787243611477
-0.013774504192433881
-0.010721965985227878
-0.0082117540616848
-0.006188206483331443
-0.0045885894299469
-0.0033480430783374066
-0.0024037450845037387
-0.00169795374472481
-0.0011798472328521043
-0.0008062899135053164
-0.0005417836557636179
-0.0003578931550316539
-0.00023239447173794452
-0.00014832446498942871
-9.303936873662479e-05
-5.734103305381848e-05
-3.470075624135327e-05
-2.059537581247731e-05
-1.1958342056544747e-05
-6.726452663789416e-06
-3.385853040188027e-06
-1.4736970550175502e-07
-3.0322963693461893e-11
-1.0948456255476782e-08
-6.510100466407988e-08
-2.5281874054205947e-07
-7.854392614962699e-07
-2.10154537383053e-06
-5.028744085113936e-06
-1.1010217967323794e-05
-2.2398514024476112e-05
-4.2809565490669586e-05
-7.751910751776947e-05
-0.0001338732587465626
-0.00022167700225395365
-0.0003535201903507962
-0.0005450014347801596
-0.0008148159077209655
-0.0011846829313527617
-0.0016791019010225935
-0.0023249388504359486
-0.0031508590834871996
-0.0041866322808961
-0.005462344308443259
-0.007007554115654431
-0.008850434652712475
-0.011016934112757374
-0.01352998877893521
-0.016408812207486804
-0.01966827829164589
-0.023318408695848863
-0.027363968816821883
-0.03180417120321811
-0.036632481435296016
-0.041836518847777726
-0.047398043062388324
-0.0532930168901525
-0.05949173653697104
-0.06595902096499069
-0.07265445351367257
-0.07953267029184498
-0.08654369128261415
-0.09363329146805563
-0.10074341053105824
-0.10781260081114086
-0.11477651418740904
-0.12156842945843803
-0.12811982261596236
-0.13436098319493656
-0.14022168064379112
-0.1456318853910952
-0.15052254995087633
-0.15482645592467636
-0.15847913297921787
-0.16141985558431055
-0.16359272217968218
-0.16494781910423265
-0.16544246758710626
-0.16504254583537556
-0.16372386923846435
-0.16147359954998314
-0.15829163851195632
-0.15419194321732294
-0.14920368088085242
-0.14337212204453165
-0.13675915721686643
-0.12944331703894443
-0.1215191847318432
-0.11309611470594448
-0.10429621245131315
-0.0952515834825718
-0.08610091461165564
-0.07698549935906707
-0.06804485416864008
-0.05941209377248922
-0.05120925148198036
-0.04354275671318479
-0.036499326629279516
-0.030142585947174682
-0.024510773985196733
-0.01961589247531546
-0.01544455588067002
-0.011960616262266209
-0.009109374068726315
-0.006822918251381673
-0.005025943348111556
-0.003641331188142058
-0.0025948807344264844
-0.0018187888075483786
-0.0012537560348731163
-0.0008498367612481398
-0.0005663112352292512
-0.00037091453150531553
-0.0002387275892844024
-0.00015095984449048713
-9.376860695180816e-05
-5.7192118791415334e-05
-3.42282098132742e-05
-2.006137816144129e-05
-1.1404427535894772e-05
-5.795761577980881e-06
-2.5155596901809257e-07
-6.175221308810392e-11
-1.747427483351436e-08
-9.950635150701679e-08
-3.76206808865091e-07
-1.1473749921968406e-06
-3.0271869454856277e-06
-7.16006907557209e-06
-1.5516071738572685e-05
-3.1263799485180026e-05
-5.920599926950904e-05
-0.00010624937099967829
-0.00018186856884955938
-0.0002985170187598814
-0.0004719356655394603
-0.0007213156002802371
-0.0010692811006765056
-0.0015416744006525882
-0.0021671403702699155
-0.0029765259615415498
-0.0040021237373322445
-0.005276799563122404
-0.006833050803043018
-0.008702043008512048
-0.0109126705866637
-0.01349068115763104
-0.016457895332142692
-0.019831544565858856
-0.023623740559978908
-0.02784108115899614
-0.03248439038269713
-0.03754858441793826
-0.04302265117774659
-0.048889728345351484
-0.05512726348970023
-0.06170723964302374
-0.0685964504313392
-0.07575681022009902
-0.08314568658499308
-0.09071624458637818
-0.09841779469870408
-0.10619613874301596
-0.1139939107395822
-0.12175091220852322
-0.12940444408176924
-0.1368896400375854
-0.14413980871451917
-0.1510867948795066
-0.15766137217047227
-0.1637936824340032
-0.16941373882134894
-0.17445201152848727
-0.17884011614359385
-0.1825116247015082
-0.185403018365433
-0.18745479771137682
-0.18861276136971553
-0.18882945574076543
-0.1880657871353016
-0.18629277260141758
-0.18349338673980936
-0.17966443926869793
-0.17481839294196155
-0.1689850055693057
-0.16221265645126098
-0.15456920089392592
-0.1461421918919635
-0.1370383208216479
-0.12738196272677488
-0.11731276667424875
-0.10698230292629507
-0.0965498566282709
-0.08617753000981948
-0.07602487110457003
-0.06624328254039664
-0.056970483794041196
-0.048325315739471277
-0.0404031975837935
-0.03327257275132918
-0.026972694284774872
-0.021513070299684713
-0.016874784376697545
-0.013013712618640648
-0.009865401417446261
-0.007351106083407524
-0.0053842961753094
-0.0038768721320966777
-0.0027444332124586953
-0.0019101610577067084
-0.001307168331783456
-0.0008794272118811019
-0.0005815753969660907
-0.00037797243357897754
-0.0002413593814964891
-0.00015139684473271733
-9.326073506203804e-05
-5.639027023534186e-05
-3.341598708732447e-05
-1.9219996689362316e-05
-9.86628995711127e-06
-4.2665087480107423e-07
-9.137628635143552e-11
-2.1352683937778142e-08
-1.2065066931931965e-07
-4.5943667665018117e-07
-1.4168675722713403e-06
-3.7781307643224537e-06
-9.013000818256282e-06
-1.9651031629603954e-05
-3.974518013432404e-05
-7.539863992258759e-05
-0.0001353135114736276
-0.0002313079491883537
-0.00037874317087650014
-0.0005968044480314579
-0.0009085906376008697
-0.0013409833111126127
-0.0019242864891294011
-0.0026916484456236674
-0.0036782952694900083
-0.004920619773276751
-0.00645517773123914
-0.008317646051124124
-0.0105417948802539
-0.013158518927381652
-0.016194963852183112
-0.019673772877361592
-0.023612468096651563
-0.028022971281276794
-0.032911260983775295
-0.03827715672560151
-0.044114217075022104
-0.050409736305347376
-0.05714482376816911
-0.06429455075745662
-0.07182815110824212
-0.07970926373319949
-0.08789620747529629
-0.096342280837072
-0.10499608119740467
-0.11380183996654088
-0.12269977173211585
-0.13162643682462866
-0.14051511792052068
-0.1492962123639542
-0.15789764289519156
-0.16624529049962578
-0.17426345421107617
-0.18187534398177502
-0.1890036142179693
-0.1955709472929744
-0.2015006982610309
-0.20671761400954505
-0.2111486420150195
-0.21472384539964864
-0.21737744166774942
-0.21904898172330703
-0.21968468277061567
-0.21923892260487882
-0.21767589270200605
-0.21497139261307555
-0.21111472795845918
-0.20611064886981573
-0.19998123601448223
-0.19276760957381
-0.18453130648259305
-0.1753551482018228
-0.1653434118082359
-0.1546211278860191
-0.14333236460819943
-0.13163741971246815
-0.11970892643610619
-0.10772697556505671
-0.09587344929278734
-0.08432583960580893
-0.07325087589946878
-0.06279831377408357
-0.05309524749683365
-0.04424131192803588
-0.036305137737869385
-0.029322404419071493
-0.023295774501888043
-0.018196864352309522
-0.013970203646079631
-0.010538879661714264
-0.007811308558648107
-0.00568839462205756
-0.004070289683177493
-0.0028620708214269408
-0.001977888380088669
-0.0013434321323391692
-0.0008968412876247118
-0.000588379969038031
-0.0003792853987315344
-0.00024018090930797223
-0.00014936487142470684
-9.117951930273452e-05
-5.455377952133566e-05
-3.167466891633895e-05
-1.6376597519615777e-05
-7.056206364010638e-07
-4.6943369039522374e-11
-9.599781211800838e-09
-7.188246781167419e-08
-3.386868695821251e-07
-1.210846311665295e-06
-3.575633500620505e-06
-9.158983886592911e-06
-2.0995721420513122e-05
-4.400029451493551e-05
-8.55984949090793e-05
-0.00015636186983765827
-0.00027057512567887784
-0.00044666530422305756
-0.0007074303797344322
-0.0010800226412207047
-0.001595665733495452
-0.0022891097291592977
-0.0031978523569637612
-0.004361173520420151
-0.0058190426401552526
-0.007610963525635357
-0.009774819913916872
-0.012345777797545084
-0.015355289931479024
-0.018830235280372944
-0.022792213278300607
-0.027257000900309792
-0.03223417053522168
-0.037726858927342566
-0.04373167209291028
-0.05023870792869317
-0.057231676871679384
-0.06468810102961084
-0.07257957327399757
-0.08087205951049116
-0.08952622942922853
-0.09849780328272074
-0.10773790450781798
-0.11719341022938945
-0.12680729383059924
-0.13651895585252766
-0.1462645415163345
-0.1559772451733484
-0.16558760401204492
-0.17502378541148492
-0.18421187444796464
-0.19307617024713766
-0.20153950213026495
-0.20952357882071468
-0.2169493863276939
-0.2237376524534597
-0.22980939808159215
-0.23508659734032225
-0.23949297015468896
-0.24295493125152842
-0.2454027188732636
-0.2467717236502127
-0.24700403249074993
-0.2460501930805401
-0.2438711907230339
-0.24044061002264594
-0.23574692888893262
-0.22979586177128386
-0.22261263420261607
-0.2142440343411105
-0.20476005366548625
-0.19425490444810006
-0.18284719350085746
-0.17067904742705456
-0.1579140298203447
-0.1447337669242436
-0.13133330040912108
-0.11791530263823657
-0.10468340472975915
-0.09183498396120361
-0.07955382249363248
-0.06800308061427633
-0.05731902984967356
-0.0476059729053484
-0.03893274226880278
-0.031331110434409545
-0.02479634500975113
-0.019289984132848888
-0.014744689229140413
-0.011070777753827882
-0.008163800309716382
-0.005912369351074299
-0.004205423396583449
-0.0029382383201854703
-0.0020167470053606075
-0.0013600348227347993
-0.0009011629877391338
-0.0005866722744025022
-0.00037520736831536113
-0.00023568548679129121
-0.00014534291995541829
-8.785640373838098e-05
-5.151616702633245e-05
-2.6828215350038628e-05
-1.151372045068074e-06
2.939868663922873e-10
4.9900039525991366e-08
1.778936926748134e-07
3.454491669948401e-07
2.7375123619180924e-07
-8.51791330993104e-07
-4.8264498548153716e-06
-1.5017543369320511e-05
-3.7070511698995346e-05
-7.966996570326914e-05
-0.00015527527192764703
-0.000280741408898827
-0.0004777408445747979
-0.0007729200118472294
-0.0011977511399524964
-0.001788071843472183
-0.002583335833451361
-0.003625624025799616
-0.004958483254946485
-0.006625668526721894
-0.008669864605898709
-0.01113145525993135
-0.01404739588513799
-0.017450229930096924
-0.021367273702635005
-0.025819979537277677
-0.030823475067368336
-0.03638626707539735
-0.04251009218568769
-0.04918989325831302
-0.0564138992667407
-0.06416378712459211
-0.07241490580098037
-0.08113654562636462
-0.09029223853849547
-0.09984007785721744
-0.10973304881741097
-0.11991936342817915
-0.1303427952278993
-0.14094301118099078
-0.1516558993559967
-0.1624138921964739
-0.17314628621589395
-0.18377955988891695
-0.19423769244920078
-0.20444248731460515
-0.21431390502110303
-0.223770411933594
-0.2327293526879084
-0.2411073563656445
-0.2488207888509023
-0.25578626666222914
-0.2619212507229267
-0.26714474185557946
-0.27137810294980746
-0.27454603526407106
-0.27657773747888975
-0.27740827498891724
-0.27698018236423566
-0.27524531264496216
-0.2721669318714577
-0.26772203492492674
-0.26190382881850494
-0.254724292419565
-0.2462166789530407
-0.23643778307831748
-0.22546975345171125
-0.21342120205496146
-0.20042735205155565
-0.18664898523083404
-0.17227000454606148
-0.1574935182242422
-0.14253647372965655
-0.1276230092029824
-0.11297682792331823
-0.09881301770866964
-0.08532981628472842
-0.0727008585971615
-0.06106843519604916
-0.050538249615518505
-0.04117609249676498
-0.033006748788161906
-0.026015312215076525
-0.02015088980515766
-0.015332443571026347
-0.011456264611950382
-0.008404357249377587
-0.006052885807930498
-0.004279848272363004
-0.0029712983420342276
-0.00202570685961312
-0.0013563690386579254
-0.0008920497393475674
-0.0005762558613545623
-0.00036560588886256143
-0.0002277361408239087
-0.00013905043470731723
-8.231359837107733e-05
-4.31545238582152e-05
-1.844487160610909e-06
1.4915376969898367e-09
2.2634390609611307e-07
8.956881204779294e-07
2.2912927727897253e-06
4.533922865023893e-06
7.208424709636604e-06
8.790781912875787e-06
5.891240663099751e-06
-7.631679787519273e-06
-4.1597145715688236e-05
-0.00011035801668756857
-0.00023347428445070684
-0.0004361069789069321
-0.000749065995168459
-0.0012084843117895175
-0.0018551316233860718
-0.002733416123054877
-0.0038901494645463505
-0.0053731645427490165
-0.007229878625847115
-0.009505887282699537
-0.012243660270544418
-0.015481392240092987
-0.019252041721073834
-0.02358257371754066
-0.028493405942152054
-0.03399804705133723
-0.04010290735200554
-0.046807258002509095
-0.054103313109706626
-0.06197640960095029
-0.07040526161200225
-0.0793622687667459
-0.08881386066066174
-0.09872086277482402
-0.10903887175222299
-0.11971863038232453
-0.1307063947578737
-0.14194428793184197
-0.15337063607641835
-0.16492028469901904
-0.176524893964711
-0.18811321366008682
-0.19961133984691456
-0.21094295681984235
-0.22202956961893447
-0.23279073407046563
-0.24314429315654726
-0.2530066304700205
-0.26229295362670035
-0.27091762281629106
-0.27879454220274175
-0.28583763463518896
-0.2919614230479544
-0.2970817448638283
-0.3011166283768344
-0.30398736198841786
-0.3056197875666368
-0.30594584707587513
-0.3049054057017414
-0.30244836349673915
-0.2985370495936622
-0.29314886701936826
-0.2862791214736988
-0.2779439246284766
-0.26818301372805825
-0.2570622788590841
-0.24467574392082928
-0.23114671597652478
-0.21662781049421223
-0.20129958671516215
-0.1853675947407568
-0.1690577448100665
-0.15261005254794194
-0.13627097616109188
-0.12028472087090923
-0.10488401902873118
-0.09028098251936117
-0.0766586574524884
-0.06416389005905306
-0.05290204400767408
-0.042934000262812036
-0.03427572375294346
-0.026900494783398485
-0.020743677935281785
-0.015709650088314174
-0.011680264237165507
-0.008524035392342703
-0.006105150094021589
-0.004291455419929852
-0.002960775993135762
-0.002005198743135982
-0.001333287769051374
-0.0008704728023020202
-0.0005580384129628156
-0.0003511969257767395
-0.00021662759296657078
-0.00012946564986352616
-6.83215492051318e-05
-2.907604686529394e-06
4.788984202948076e-09
6.551346360855169e-07
2.578142976504753e-06
6.7421363309844535e-06
1.4132261948256852e-05
2.5252558534676705e-05
3.936259952904283e-05
5.3485019972190535e-05
6.12759270231967e-05
5.188943390491407e-05
8.983881858368664e-06
-8.999220206046173e-05
-0.0002741286432000432
-0.0005789383759541199
-0.001045793195615162
-0.0017209545798926003
-0.0026542820490866132
-0.003897725020310182
-0.005503711909872058
-0.007523544208092304
-0.010005886940519784
-0.01299542456178514
-0.016531726944167425
-0.020648347000429574
-0.02537215185394838
-0.030722874505331066
-0.03671286289691891
-0.043346997732138716
-0.05062274855449828
-0.058530338458993705
-0.0670529904433415
-0.07616723198750605
-0.085843238345833
-0.09604519881330595
-0.10673169363024024
-0.11785607210356784
-0.12936682493346677
-0.14120794568939513
-0.15331927795907704
-0.16563684598639822
-0.17809316770395012
-0.1906175500264318
-0.20313636716317565
-0.21557332358238224
-0.2278497041608042
-0.23988461502435518
-0.2515952196750414
-0.2628969762634628
-0.2737038833698094
-0.28392874347563013
-0.2934834555248596
-0.3022793506622824
-0.3102275884551676
-0.3172396346542343
-0.3232278457504615
-0.32810619001402896
-0.33179113894356044
-0.3342027664323241
-0.3352660944871787
-0.33491272269514144
-0.3330827721955136
-0.32972716186216977
-0.32481021293942863
-0.3183125470966094
-0.31023420123125545
-0.30059783127595113
-0.28945181973278217
-0.27687304321541456
-0.2629690051916199
-0.2478790059785942
-0.23177401853774182
-0.21485497539035525
-0.19734925575450726
-0.1795052925700434
-0.16158538712220102
-0.14385700594653267
-0.12658301544159103
-0.11001145755419552
-0.09436556328705288
-0.07983472758679554
-0.06656712841430797
-0.05466457159916423
-0.04417999123414527
-0.03511784096588133
-0.027437381000080734
-0.021058608913751883
-0.01587032027715881
-0.01173955318244514
-0.008521514792815123
-0.006069050400957789
-0.004240817923962133
-0.0029075613788566356
-0.0019561891748546396
-0.0012916882378430795
-0.0008371713926385562
-0.0005325004277133784
-0.0003318706832442834
-0.0002002278157497689
-0.00010633184936121078
-4.504982913422732e-06
1.2700546355841916e-08
1.5820130889216217e-06
6.08508293702566e-06
1.576290445263535e-05
3.3166775960078555e-05
6.045529875125193e-05
9.834102622290088e-05
0.00014476327891421218
0.00019343665750699677
0.00023246375669060644
0.0002432040351582025
0.00019955996997475617
6.778527293078655e-05
-0.00019314893898611702
-0.0006306620086692249
-0.0012972334422672312
-0.002248759174171737
-0.0035427349737087847
-0.005236404173168552
-0.007384988717593117
-0.010040095256218637
-0.01324835720687699
-0.017050344044197512
-0.021479743678407222
-0.026562804398570658
-0.03231800985803684
-0.03875595344547577
-0.04587937601751102
-0.0536833320532301
-0.06215545254595037
-0.07127627728767223
-0.08101963381062798
-0.091353044591285
-0.10223814790392637
-0.11363112083322159
-0.12548309544822933
-0.13774056110967645
-0.15034574746492818
-0.16323698401745704
-0.17634903335692684
-0.1896133962905974
-0.20295858828446595