# vtk DataFile Version 4.1 
COMMENT
ASCII
DATASET STRUCTURED_POINTS 
DIMENSIONS 100 100 1 
ORIGIN 0 0 0
SPACING 0.12693303650867893 0.12693303650867893 0 
POINT_DATA 10000
SCALARS U double 1
LOOKUP_TABLE default
0.0
0.0
0.0
0.0
0.0
0.0
0.0
0.0
0.0
0.0
0.0
0.0
0.0
0.0
0.0
0.0
0.0
0.0
0.0
0.0
0.0
0.0
0.0
0.0
0.0
0.0
0.0
0.0
0.0
0.0
0.0
0.0
0.0
0.0
0.0
0.0
0.0
0.0
0.0
0.0
0.0
0.0
0.0
0.0
0.0
0.0
0.0
0.0
0.0
0.0
0.0
0.0
0.0
0.0
0.0
0.0
0.0
0.0
0.0
0.0
0.0
0.0
0.0
0.0
0.0
0.0
0.0
0.0
0.0
0.0
0.0
0.0
0.0
0.0
0.0
0.0
0.0
0.0
0.0
0.0
0.0
0.0
0.0
0.0
0.0
0.0
0.0
0.0
0.0
0.0
0.0
0.0
0.0
0.0
0.0
0.0
0.0
0.0
0.0
0.0
1.6426007113899336e-12
-8.056715959719624e-10
-8.842950045281452e-09
-4.9784553410390466e-08
-2.0124156113493856e-07
-6.585463330630392e-07
-1.8514875996056245e-06
-4.630753047358822e-06
-1.053936391919171e-05
-2.2175375703331774e-05
-4.363752439064505e-05
-8.102665287294747e-05
-0.00014295531726638472
-0.00024099952760319325
-0.0003900139422832654
-0.000608228287382694
-0.0009170503365563494
-0.0013405197778354296
-0.0019043861872074784
-0.00263481999703094
-0.003556803573618001
-0.004692285682606021
-0.006058212409265097
-0.007664567612772676
-0.0095125641513797
-0.011593122836814343
-0.013885760210818618
-0.016357980813154722
-0.018965237460979785
-0.021651487395693923
-0.024350336160799253
-0.026986727577256963
-0.02947910940912809
-0.031741981768048176
-0.03368871975213657
-0.03523455333183475
-0.036299585596794116
-0.03681173426743598
-0.03670948970446917
-0.03594439427226278
-0.034483161610280914
-0.0323093690543776
-0.029424671241550314
-0.02584949718594908
-0.02162320644908851
-0.016803692319132122
-0.01146643127659061
-0.005702988775929861
0.00038099800607291166
0.006668328732180166
0.013033195920662658
0.019344530819743508
0.02546966583079537
0.03127822242448051
0.03664611411398411
0.041459534029537844
0.04561877767574219
0.04904173598028876
0.05166688483203873
0.05345559839255095
0.05439362784333516
0.05449161733353135
0.05378457541926628
0.05233028137354841
0.05020667647076823
0.047508362914993586
0.04434239795796968
0.04082361878407312
0.037069758750297256
0.03319661655755471
0.029313521687493665
0.025519310784531152
0.021898999440144395
0.018521306177320056
0.015437156743114815
0.01267925676802474
0.010262757963131437
0.008186952796347924
0.006437823965945043
0.004991170917944449
0.0038159659798163376
0.002877581877336723
0.0021405879585757424
0.001570920145555491
0.0011373585402538991
0.000812361555551241
0.000572380649411722
0.00039780701564480047
0.0002726897761126223
0.00018433260423628297
0.0001228402742003947
8.065931348828152e-05
5.21402000277971e-05
3.313926428629836e-05
2.0672182105547135e-05
1.2624762183123032e-05
7.519193676034263e-06
4.320043475068959e-06
2.213683922002498e-06
9.657624257976958e-08
3.413036718947835e-12
-2.8409431856912032e-09
-2.53095641008036e-08
-1.2604113829980658e-07
-4.6534284090579627e-07
-1.4142091325729316e-06
-3.730466203942037e-06
-8.815061290376794e-06
-1.9050680084839795e-05
-3.82085899420678e-05
-7.189004008998384e-05
-0.00012794922804924648
-0.00021682993857381587
-0.00035174135570226395
-0.000548602890180292
-0.0008257039053778252
-0.0012030505737307831
-0.0017014054455572161
-0.0023410610628227147
-0.0031404220652751554
-0.004114496131331446
-0.0052734093796769676
-0.006621064793168984
-0.008154052865423953
-0.009860903674991879
-0.011721741827419465
-0.013708373703538999
-0.015784803857069443
-0.017908147490433252
-0.02002988125950365
-0.02209735685975434
-0.02405549162282311
-0.025848547537655146
-0.02742191385177223
-0.02872381738615826
-0.029706897349675646
-0.03032959616277675
-0.030557333111021417
-0.030363442289930584
-0.029729869305058707
-0.028647631890437966
-0.027117057628913668
-0.025147817174930042
-0.02275877387358346
-0.019977670674546796
-0.01684067310522601
-0.013391783227640163
-0.00968213445916264
-0.005769171455009395
-0.0017157135711563438
0.00241110452006135
0.006541024873886103
0.010602001688691515
0.014521688243537537
0.018229076544298204
0.021656278754075144
0.02474042191364069
0.027425604857432784
0.029664840112708993
0.03142187682943606
0.03267277783122383
0.033407110395311766
0.03362861258632319
0.03335522023649665
0.03261838649430039
0.03146169379366615
0.029938838208980984
0.028111143276447228
0.026044815809434393
0.023808173297349102
0.02146904325564004
0.019092465901396245
0.01673874470353488
0.014461816244485668
0.012307880566032952
0.010314258610383285
0.00850851217829971
0.006907938524707992
0.005519591895316827
0.004340955687061869
0.0033612888644057428
0.0025635300062524934
0.0019265142941447852
0.0014271925925230552
0.001042561691302361
0.0007511094686486661
0.0005337089728549625
0.00037401410186388884
0.0002584827019656616
0.00017617112531098233
0.00011842066863898589
7.851466351902084e-05
5.1346523292843756e-05
3.3114535510710416e-05
2.1048608469231786e-05
1.3171407727713125e-05
8.093787488982996e-06
4.831708344241468e-06
2.57358161023684e-06
1.14225367187343e-07
3.663215092238681e-12
-9.397814493427626e-09
-7.379765968119953e-08
-3.4000324525377255e-07
-1.185960471811282e-06
-3.4458391397919236e-06
-8.757966516651284e-06
-2.0051444046438598e-05
-4.216608251414758e-05
-8.257174526780729e-05
-0.00015212168440319676
-0.0002657459276770359
-0.0004429714311680785
-0.0007081506236622749
-0.0010902918997214657
-0.0016224143943310964
-0.0023403918904406217
-0.0032813015591789366
-0.004481345722210265
-0.005973462182418455
-0.007784775125312225
-0.009934060185167012
-0.012429402234942261
-0.015266213230872221
-0.01842575230936111
-0.021874254880316253
-0.025562735925079752
-0.02942748936529246
-0.03339126403729
-0.037365060501136055
-0.04125046368150832
-0.044942405240952825
-0.0483322367998696
-0.05131099010500435
-0.0537727019675827
-0.055617688905344444
-0.05675566747959433
-0.05710862990498715
-0.05661339935407359
-0.05522380441630547
-0.05291242657679357
-0.04967188777159114
-0.045515656700976036
-0.04047836249154177
-0.03461561251687547
-0.028003317882354967
-0.020736535532010856
-0.01292784051134901
-0.004705246052113489
0.0037903066848220743
0.012407862644189032
0.020989738288641428
0.029375138470608027
0.03740405505458511
0.044921384929160646
0.0517811889977815
0.05785099389448829
0.06301601445820287
0.0671831479347942
0.07028456197533825
0.07228067077438126
0.07316227214954882
0.07295161027199752
0.0717021433339694
0.0694968425287654
0.06644493613379117
0.06267714211992097
0.058339596238287265
0.053586858468667536
0.04857453505916154
0.043452145805192244
0.03835686171972027
0.03340862154419739
0.028706922284865977
0.024329317253003354
0.02033141346426522
0.016748004038932424
0.013594936371673713
0.010871393546554779
0.008562402595484705
0.006641507597137205
0.005073601353218333
0.003817879932395273
0.0028307990020966325
0.0020688265061132964
0.0014907562648773737
0.0010593943513264978
0.0007425383695278741
0.0005132959817152897
0.000349887431119501
0.0002351203368694747
0.00015571348850127793
0.00010159990745396886
6.52843008063022e-05
4.1285605413868494e-05
2.5668383670973575e-05
1.5651917630142638e-05
9.262408903192077e-06
4.889609393279534e-06
2.1479439476038022e-07
-1.1661805185891407e-11
-2.8168197567925884e-08
-1.9867401172277076e-07
-8.507194190813665e-07
-2.8027563002873097e-06
-7.764607691793163e-06
-1.8933799488912413e-05
-4.177454389976688e-05
-8.493818675441917e-05
-0.00016123912343335623
-0.00028855914036877983
-0.000490525391302312
-0.0007968006070029454
-0.001242842861931114
-0.0018690357729260114
-0.002719153201099114
-0.003838196568610859
-0.005269717124848902
-0.007052799381586953
-0.009218926909080195
-0.011788972379349779
-0.014770548557828637
-0.01815592789081468
-0.021920690319016403
-0.026023198704798522
-0.030404936196847265
-0.034991676978470734
-0.03969540695032397
-0.04441686807234395
-0.04904857153757807
-0.053478111093804424
-0.05759160760276935
-0.06127712718886545
-0.06442793529789467
-0.06694547465050352
-0.06874198352731112
-0.06974269950447069
-0.06988762060402004
-0.06913281932161053
-0.06745132417958777
-0.06483359784988758
-0.06128765042792335
-0.056838831355038304
-0.05152934424134281
-0.04541752603045513
-0.03857692624844161
-0.031095214203018025
-0.02307293267114346
-0.01462210656511835
-0.005864705041473405
0.0030690537232384903
0.012042573523965932
0.020914950559744228
0.02954326892269437
0.037785144487854735
0.045501533130067266
0.052559805700156136
0.05883707174695707
0.0642237058412722
0.06862699413270534
0.07197477470529469
0.07421889489140542
0.07533825554656241
0.07534116307645049
0.07426667536112896
0.07218462214698874
0.06919402060055589
0.06541970708423639
0.061007172729901964
0.05611581293077074
0.050911048202589126
0.04555599479135608
0.0402034971273435
0.03498932925296661
0.030027208425939193
0.025405967530660302
0.02118887576547106
0.017414776151109125
0.014100510157160273
0.01124406554931101
0.008827992862703929
0.006822817059989792
0.005190335758780054
0.0038867802956026676
0.002865808198063096
0.0020812323948778983
0.001489334030646021
0.0010506006678551623
0.0007307929142695442
0.0005013459561713681
0.00033921504979687834
0.00022633840007145632
0.0001489021263554656
9.655939287983328e-05
6.170207274428934e-05
3.8830423944441936e-05
2.4022993253801636e-05
1.4455821022286867e-05
7.750426684915343e-06
3.4022711848094006e-07
-9.43570269230858e-11
-7.802177933107282e-08
-5.031656329450867e-07
-2.0210074509401205e-06
-6.328093101708472e-06
-1.6796847111178556e-05
-3.94625893156117e-05
-8.423438597304344e-05
-0.0001662292416179817
-0.0003070691378010473
-0.0005359364028656561
-0.0008901666614228078
-0.001415176988655904
-0.0021635800109590813
-0.0031934159243042436
-0.004565531858951393
-0.006340237103759961
-0.008573449001540378
-0.011312606182086982
-0.014592656057179182
-0.01843242019753692
-0.022831607241705406
-0.027768685001927657
-0.033199750301826696
-0.03905845628324222
-0.0452569811460128
-0.05168795644160418
-0.058227221720826935
-0.06473723772206921
-0.07107097241100879
-0.0770760713995061
-0.08259913382845548
-0.08748993340290866
-0.0916054485637341
-0.09481359271376232
-0.09699656245893583
-0.09805374707734796
-0.09790416462732301
-0.09648840855765234
-0.09377010316462615
-0.08973687687683647
-0.0844008694991065
-0.07779879370482858
-0.06999157278170519
-0.06106357646279458
-0.051121475139181596
-0.040292730341249396
-0.028723736549364096
-0.01657762659374008
-0.004031750577217187
0.008725163115909281
0.021496156050719317
0.034079486372900945
0.04627235818770632
0.05787491000689237
0.06869442688801879
0.07854972527968142
0.0872756401187546
0.09472752082164156
0.10078561723997087
0.10535920943732369
0.10839030744377894
0.10985672022213966
0.10977426858266512
0.1081978975205416
0.10522143464623579
0.10097575197576852
0.09562513136831563
0.08936172451931557
0.08239814871629039
0.07495847023505861
0.06726807880726854
0.05954320472562682
0.051981010473152636
0.04475123343590984
0.03799021959480969
0.03179787151149631
0.026237597412278144
0.02133889849555755
0.01710188753612851
0.013502879397595847
0.010500251997434122
0.008039990270060948
0.0060605949637529966
0.004497261867498996
0.0032853568991401483
0.0023632299321631476
0.0016743729185502273
0.0011688954491542315
0.0008043017135070166
0.0005456086468166838
0.00036491856941143824
0.00024061572025241762
0.00015637222835860568
0.00010012385897384065
6.312356635500987e-05
3.911504830269974e-05
2.356960788902933e-05
1.264109689368232e-05
5.529157497243e-07
-4.026525312404725e-10
-2.0168262225213667e-07
-1.203704609467573e-06
-4.563470297283765e-06
-1.3632181581425695e-05
-3.475719207383249e-05
-7.881349699235716e-05
-0.00016294925942404858
-0.00031234305394359756
-0.0005617023922292193
-0.0009562021113047258
-0.0015515787601285396
-0.002413164862789962
-0.0036137563464011977
-0.005230340844472399
-0.00733985297314306
-0.010014243949948695
-0.01331523989421383
-0.017289205197793495
-0.021962521517737484
-0.02733784343030467
-0.0333915083404914
-0.04007227384211007
-0.047301444192340635
-0.05497434150549062
-0.06296298661264906
-0.07111978577368488
-0.07928197552094736
-0.08727655866904889
-0.09492546731660671
-0.10205070927730042
-0.10847928782572927
-0.11404772587786814
-0.11860607014904373
-0.12202129462718729
-0.12418006298035929
-0.12499084434227964
-0.12438540519898666
-0.1223197214525422
-0.1187743693199056
-0.11375446206173623
-0.10728920237188157
-0.09943111843772767
-0.09025504605886085
-0.07985691059369568
-0.06835235162152842
-0.055875220710370904
-0.04257596915359964
-0.02861992853409508
-0.014185473062185799
0.0005379605448978399
0.015352031544000303
0.03005187710634801
0.04442876835290149
0.05827309159014648
0.07137769969506086
0.08354166425672635
0.09457443525036877
0.10430038098313478
0.11256363706524468
0.11923314077941201
0.12420766946077988
0.1274206427366368
0.1288443940858955
0.1284935730629915
0.12642731183669548
0.1227497850558051
0.11760881839043996
0.11119226840406704
0.10372201626383494
0.09544560002984662
0.0866257560564496
0.07752843276344071
0.06841013802025199
0.059505718538042686
0.05101776871344948
0.043108764374554666
0.03589669510249943
0.029454473094475044
0.02381283479635751
0.018965963413965684
0.014878768416998395
0.011494721092842176
0.008743336643450427
0.0065467165557893045
0.004824897648625357
0.003499999882044955
0.0024992864611597986
0.0017572697478605594
0.0012169708036925387
0.000830421573195144
0.000558511000728471
0.00037031210219762626
0.00024206100254266428
0.00015596790599433106
9.901370194468025e-05
6.182069816429122e-05
3.754221215837752e-05
2.0254846483261394e-05
8.831403544159812e-07
-1.3606278186700351e-09
-4.902476029890925e-07
-2.7328237826762194e-06
-9.830252833272963e-06
-2.8112925810610556e-05
-6.902657319368906e-05
-0.00015137012432817182
-0.00030364091409298955
-0.0005661405833151899
-0.0009924398060050254
-0.0016498109934364317
-0.0026183199052855623
-0.003988409125585632
-0.005856985805050714
-0.008322213251437317
-0.011477370858561525
-0.015404265052718209
-0.02016673051284954
-0.025804752105022286
-0.032329670279920085
-0.039720820371714705
-0.047923817836357525
-0.056850556237911076
-0.06638084977472936
-0.07636554017452761
-0.086630806615458
-0.09698336963866536
-0.10721626421545156
-0.11711486852140504
-0.12646290704257593
-0.13504819227343748
-0.14266792168445694
-0.14913340005650255
-0.15427410726604246
-0.15794107516696593
-0.1600095727035584
-0.16038112528170578
-0.15898491304863785
-0.15577860398062593
-0.1507486827626178
-0.14391033668159564
-0.1353069564204081
-0.12500930386179285
-0.11311439172757641
-0.09974411180592441
-0.08504364017564577
-0.06917963955894094
-0.052338270921880974
-0.03472301880189914
-0.016552327639107255
0.001942960295954308
0.02052238079378641
0.0389388578633423
0.05694197214260179
0.07428151281126727
0.09071133613353491
0.1059935468411584
0.1199030052149091
0.13223214127703176
0.14279602662893257
0.15143761360469277
0.15803300132073042
0.16249653140074646
0.16478545711032996
0.16490387457442945
0.16290556109090726
0.15889534118559717
0.1530286038772789
0.1455086326454489
0.13658149145512258
0.12652834512459857
0.11565528801890555
0.10428101213206602
0.0927229491298042
0.08128283219963395
0.07023287833610938
0.05980391027772195
0.0501766483901658
0.041477074835796914
0.033776239273770894
0.027094240958471787
0.021407535371550053
0.01665831964329298
0.01276463833265638
0.009630018350115012
0.00715180219750634
0.005227769637689318
0.0037609960294824377
0.0026631206469465507
0.0018562868036220025
0.0012740124658715075
0.0008612137989884845
0.0005735760598986574
0.00037645786456106924
0.0002435138588316261
0.00015520514966130665
9.730689127009057e-05
5.933228847489167e-05
3.20913923031709e-05
1.3944414903069055e-06
-3.997062150448377e-09
-1.1271394066971481e-06
-5.910341993874491e-06
-2.0257547726233986e-05
-5.5623345434322896e-05
-0.00013180351887243387
-0.0002799887663757449
-0.0005456448144906635
-0.0009906897700759224
-0.001694434125543808
-0.0027528427625916783
-0.004275859813911923
-0.00638277581756089
-0.009195870763644424
-0.012832793607164111
-0.017398303351099858
-0.02297607722389136
-0.029621282075013373
-0.03735451496411078
-0.046157568095015714
-0.055971287720638876
-0.0666956031633687
-0.07819162397816652
-0.09028555770872093
-0.10277409755890099
-0.11543087151568106
-0.12801352912385774
-0.14027106229524733
-0.1519510031104219
-0.1628062048628918
-0.1726009836327374
-0.18111646900095557
-0.18815507856638938
-0.19354408808132378
-0.1971383153959122
-0.1988219715151965
-0.19850975646330588
-0.1961472925019592
-0.1917109940784331
-0.18520747427941617
-0.17667258305319494
-0.1661701643560963
-0.1537906087660194
-0.13964926582819318
-0.12388476707370019
-0.10665729671002155
-0.08814683271306108
-0.06855136664841711
-0.048085096173866575
-0.026976569999159223
-0.005466751351138903
0.016193046906346396
0.0377434138404503
0.05891934630343815
0.07945308255827041
0.09907733822226111
0.11752901354389879
0.13455342691151165
0.14990910475465521
0.163373120867246
0.17474692759911642
0.1838625575681609
0.19058899969842377
0.19483847209124464
0.19657223372568208
0.1958055068053604
0.19261103263873125
0.1871207671955077
0.17952524756196675
0.17007023500326862
0.15905036974585668
0.14679976052122654
0.1336796789863832
0.12006382918964796
0.10632199557244001
0.09280319911236315
0.07981974648867227
0.06763366322323816
0.05644688737161326
0.046396232052845314
0.03755353433481162
0.02993069897216898
0.02348867391927188
0.018148919991867803
0.01380576703846784
0.010338199680352505
0.0076200085820018046
0.005527739832568787
0.003946332757361452
0.0027726589568421584
0.001917335382056861
0.0013052136498224766
0.000874905763348625
0.0005776458540800915
0.00037573516684753013
0.00024076929115650193
0.00015176130855480615
9.300457873586547e-05
5.04638246567181e-05
2.184733894077026e-06
-1.0611251535679885e-08
-2.4626061238082873e-06
-1.2216425014267215e-05
-4.003928885117753e-05
-0.00010582188651795672
-0.00024245534873067607
-0.0004996831012400229
-0.0009472395550655482
-0.0016765547625374904
-0.0028004037640718374
-0.004450105486750887
-0.006770188893245695
-0.009910786184913336
-0.014018323404318455
-0.019225306850974767
-0.02564011761758501
-0.03333771751829034
-0.04235205028610394
-0.05267072049001135
-0.06423228572855222
-0.07692624258928674
-0.09059555560238795
-0.10504139384193426
-0.12002961431411531
-0.13529846729000872
-0.15056699083919753
-0.16554359926585688
-0.17993443962714728
-0.19345117845110163
-0.20581797503751165
-0.21677748865669288
-0.22609584776605882
-0.23356657605114584
-0.23901352108383428
-0.24229286695107213
-0.24329433388409505
-0.24194167797636026
-0.23819260506217843
-0.23203820723169422
-0.22350202051178614
-0.21263878979678816
-0.19953301359688225
-0.18429732760545608
-0.16707077312388405
-0.1480169843703111
-0.12732231774147942
-0.10519393611307393
-0.08185785204567426
-0.05755692502395122
-0.03254879928313601
-0.007103760084144349
0.01849752270429089
0.043966404189449124
0.06900887708565691
0.09332844613054046
0.11662933021644048
0.13862006201008753
0.1590175530434158
0.17755168201953286
0.19397044226529395
0.2080456478603546
0.21957914472026305
0.22840940214562003
0.2344182739501274
0.23753762150321522
0.23775539292786577
0.23512066585821947
0.2297471004935798
0.2218142304540562
0.21156605448878177
0.19930649191212732
0.18539143338141778
0.17021735572771535
0.15420676859147656
0.13779110685110788
0.12139204841334479
0.10540257563786416
0.09016934469793744
0.07597800354917013
0.06304293844303262
0.05150250236120343
0.04142012255089113
0.03279090777621404
0.025552641016022556
0.019599518221707114
0.014796795872480334
0.010994664301995673
0.00804009511049647
0.005785976061141131
0.004097389517947863
0.0028552954403714857
0.0019581018056557477
0.001321664478100745
0.0008782125299802482
0.0005746028485341186
0.0003701999451080619
0.0002345199607669327
0.0001443571275243177
7.851390646615811e-05
3.3861842240512775e-06
-2.5991702236658166e-08
-5.132958634038643e-06
-2.4202168944814952e-05
-7.608136521385814e-05
-0.0001939704500609858
-0.0004304382779957931
-0.0008618169217104092
-0.0015910017083386508
-0.002747788978643667
-0.004486155664839889
-0.006978288706775963
-0.010405629673096526
-0.014947624686296688
-0.020769188205494872
-0.028008054434105385
-0.03676318789126409
-0.04708527152757136
-0.058970025855362665
-0.07235478676320878
-0.08711843460428756
-0.10308446647212818
-0.12002676778872783
-0.1376774839702159
-0.15573631977192606
-0.17388059401976322
-0.19177543510229034
-0.20908359920726852
-0.22547451049966413
-0.24063224443202133
-0.2542622900661294
-0.2660970266674457
-0.2758999297050243
-0.2834685806538536
-0.28863659481669135
-0.2912746043344996
-0.2912904428946189
-0.28862867774756423
-0.2832696266151183
-0.2752279845385514
-0.26455117072825446
-0.2513174895201537
-0.23563418360229232
-0.21763544231867307
-0.19748041334809463
-0.17535125243666308
-0.15145123303821495
-0.1260029255135012
-0.09924644375147601
-0.07143774550102241
-0.04284696116482656
-0.01375671419046224
0.015539615532550401
0.04473974559232586
0.07353453404805806
0.10161029381068322
0.12865146944164443
0.1543437728384394
0.17837787442878428
0.20045373876962796
0.2202856747436443
0.23760813751458643
0.2521822689282039
0.26380309299383947
0.27230719329039627
0.27758059252631306
0.2795664380303182
0.27827198221735655
0.27377424984031107
0.26622372261824995
0.2558453653296579
0.24293638143905935
0.22786023071876368
0.2110366683169535
0.19292786796380937
0.17402105625029685
0.15480848478951612
0.13576596439969704
0.11733152645316008
0.09988599275532248
0.08373725298670652
0.06910980892666943
0.056140630427836534
0.04488162788938302
0.035308199425670476
0.02733252730983284
0.020819749740593665
0.01560493956049074
0.011509005513172542
0.008352115753140042
0.005963877559364378
0.004190124933469104
0.0028966388421973526
0.0019703955983792713
0.001319019168578186
0.0008690563645887845
0.0005635498972800797
0.0003591285435171213
0.00022216740387747368
0.00012114595905563885
5.203813500323311e-06
-5.950622676582056e-08
-1.0241243274508005e-05
-4.6074553587390555e-05
-0.00013928302102938716
-0.0003432101330702514
-0.0007387746606787817
-0.0014387887495823089
-0.00258941033391265
-0.004367843701164344
-0.006975913463727837
-0.010629743163732665
-0.015546349255551373
-0.02192840744281721
-0.029948690920461995
-0.03973569516436292
-0.05136177204733068
-0.06483475071733957
-0.08009359432926744
-0.09700820191184809
-0.11538307341429227
-0.13496425437849915
-0.15544878457088182
-0.17649579289804457
-0.19773839507443858
-0.21879563804181126
-0.23928386998824905
-0.2588270720259313
-0.277065846278723
-0.29366489996885664
-0.30831898654045486
-0.320757358568118
-0.3307468529135773
-0.33809376888394593
-0.3426447192173275
-0.34428663642664276
-0.3429461081406578
-0.338588198818616
-0.33121489502593643
-0.3208632899402836
-0.3076036017094342
-0.29153710082225653
-0.27279400435923346
-0.2515313800378528
-0.22793109026450578
-0.20219779567567917
-0.17455702852055252
-0.1452533382719439
-0.11454850459429358
-0.08271980577919093
-0.05005832352046592
-0.0168672570064567
0.016539789622924076
0.04984059264450874
0.0827062247681011
0.11480317244277756
0.14579573846478294
0.17534882659546003
0.20313121496621608
0.22881942969144328
0.25210232568294355
0.27268646381945066
0.29030233773150277
0.3047114452737392
0.31571411645705905
0.3231579011092231
0.32694618985369894
0.3270466004749274
0.32349852353031366
0.3164191065532304
0.306006888930338
0.2925423028711016
0.2763843487273971
0.25796294571398176
0.2377667509564735
0.21632661734891503
0.19419529800565807
0.17192446386781784
0.15004053038113144
0.12902112583948558
0.10927420617974241
0.09112175951907064
0.07478970185856787
0.060404943579315834
0.047999771411024406
0.03752277681280128
0.028854746357312295
0.021827385257333673
0.01624258499972949
0.011890185570754178
0.008562734190985967
0.006066446772681206
0.004228260548600739
0.00289939057983843
0.001956104073981889
0.0012985076927942065
0.0008480345971320907
0.0005439744702897263
0.0003383797439586583
0.00018503965759154877
7.91508438944755e-06
-1.284743435806466e-07
-1.9616578335100136e-05
-8.448470328165481e-05
-0.0002461574407350812
-0.0005872499592979668
-0.0012278504482214785
-0.002328658274951213
-0.004089613895337891
-0.006743352421216884
-0.010543606146290954
-0.015749469051332052
-0.022607063453612148
-0.03133050921508948
-0.04208414860585974
-0.05496774844616054
-0.07000595723400418
-0.08714273560012449
-0.10624090264056764
-0.12708643121260604
-0.14939673788287236
-0.17283197360934166
-0.19700822829933776
-0.22151159513404908
-0.24591216652718684
-0.26977721670165855
-0.29268303251506694
-0.31422505710431603
-0.3340261910245524
-0.3517432418297614
-0.3670716214784186
-0.37974846281606356
-0.389554366371782
-0.39631400323324334
-0.3998957956811135
-0.40021088092148754
-0.39721153998492975
-0.39088924775392503
-0.3812724739966935
-0.36842434100122545
-0.3524402218297989
-0.3334453446291525
-0.31159245269517194
-0.28705955672366085
-0.2600478043950691
-0.23077948264036144
-0.1994961591555263
-0.16645696157314468
-0.13193698482413582
-0.09622580934551622
-0.05962610465831741
-0.022452284217972695
0.01497083189766254
0.052309400151953775
0.08922204756358013
0.12536155392918058
0.1603768127514654
0.1939151745868652
0.22562528849288727
0.2551605658116894
0.2821833925300225
0.3063702077439326
0.3274175413220704
0.34504905833705607
0.3590235863657181
0.3691440012872195
0.3752667180767866
0.377311380745254
0.3752701819291448
0.36921608659588695
0.3593091108715829
0.34579974449379863
0.3290286312444743
0.30942175702856306
0.2874806496814568
0.263767462614424
0.2388852739059032
0.21345444521800352
0.18808639850577888
0.16335661857347344
0.13977900355685247
0.11778378966948662
0.09770110938151369
0.07975177355837751
0.06404612095727787
0.0505908425706381
0.039302715196879626
0.030027352585022725
0.02256057194602297
0.01666987924523683
0.012113897508018267
0.008658195399334056
0.006086748451077572
0.004209000900702462
0.0028630515876547575
0.0019157884752705272
0.0012608103298838845
0.0008145814614411373
0.0005098104179144218
0.0002796786649055536
1.1910962690491072e-05
-2.6330242605864157e-07
-3.616693081891745e-05
-0.00014953174444307096
-0.0004207577162753847
-0.0009733221017575883
-0.0019792037411013575
-0.0036591688224707915
-0.0062766619450372015
-0.010125202408972607
-0.015510249935260937
-0.022727386291013462
-0.03203919802203443
-0.0436533707543027
-0.05770424000331703
-0.07423948121179051
-0.09321289537584361
-0.11448349320518446
-0.13782041504168754
-0.16291272240965504
-0.18938279440725092
-0.216801954929272
-0.2447070144108845
-0.2726165867237571
-0.3000462883633206
-0.32652219792004206
-0.3515922134129527
-0.37483516940661316
-0.39586775223346615
-0.4143493767775586
-0.4299852655915045
-0.44252800817785976
-0.4517778844427458
-0.45758222107616947
-0.4598340213337079
-0.45847007415570484
-0.45346871272558786
-0.4448473587109333
-0.432659958405791
-0.41699439157854556
-0.3979699130580969
-0.37573467053693155
-0.3504633290748655
-0.3223548226214139
-0.29163024483528344
-0.25853088494347876
-0.22331640882371895
-0.1862631804742277
-0.14766271418333532
-0.10782024269470833
-0.0670533811602473
-0.025690860349107468
0.015928704913831505
0.0574580551332811
0.09854258729361853
0.1388217846884846
0.17793085740557824
0.2155026921999096
0.25117022794853816
0.2845693892036938
0.31534272263937363
0.3431438852854728
0.36764312401995175
0.38853385658292955
0.40554040889017345
0.41842687607625323
0.42700695244410247
0.43115441978063235
0.4308138022096932
0.42601050469052687
0.4168595754271732
0.4035721005388812
0.3864581861574307
0.3659255400218816
0.34247285395395566
0.316677517388082
0.28917764791734746
0.26064897418128596
0.2317776966169578
0.20323101444416006
0.17562746463160966
0.14950948970615593
0.1253206631521754
0.10338970368364162
0.08392279425448373
0.0670048384382112
0.05260925159564848
0.040614866533662294
0.03082772206701515
0.02300505711091951
0.01687883390707848
0.012176537918968442
0.008637726280384346
0.00602563871917566
0.004133955959603377
0.0027893384119537863
0.0018505761883749231
0.0012047739107108276
0.0007589671491456556
0.0004178252718412801
1.7713405857307463e-05
-5.148781298583311e-07
-6.433355904747808e-05
-0.0002559670910490814
-0.0006968108135648039
-0.0015651488701617139
-0.0030988236136592585
-0.005590421863027157
-0.009374201241664442
-0.014805665621552213
-0.022235937747368675
-0.031983884929048814
-0.04430921036456133
-0.059389441815926036
-0.07730305092942995
-0.0980200000468263
-0.12140002861663178
-0.14719811835447968
-0.17507592204780184
-0.20461755259977907
-0.2353480010414795
-0.26675254145737026
-0.29829572338762944
-0.32943888015442985
-0.3596554338923667
-0.3884436082206008
-0.41533643742705173
-0.4399091722802507
-0.46178432523266105
-0.4806346786078201
-0.4961846100482705
-0.5082100834618863
-0.5165376238308305
-0.5210425515151
-0.5216467045235279
-0.518315831460121
-0.5110567969797796
-0.4999147072467131
-0.4849700353846293
-0.4663358056855096
-0.4441548793869487
-0.4185973729551575
-0.3898582308747446
-0.35815496795164886
-0.3237255902910976
-0.28682669883874584
-0.2477317742803551
-0.20672963694314125
-0.1641230699919061
-0.12022758857812105
-0.07537033159630761
-0.02988904620564484
0.01586887191025955
0.06154732773053545
0.10678252021147201
0.1512040456391799
0.1944361902353061
0.23609950672895558
0.2758127869833099
0.3131955609782935
0.3478712694229025
0.3794712695904007
0.40763983670428405
0.4320403099449884
0.4523624954269158
0.46833137069637826
0.4797170301541487
0.4863456654240424
0.48811119192465113
0.48498692359360956
0.47703648216206035
0.464422935277327
0.44741502593763793
0.42638932327489304
0.4018272262398413
0.3743060092271073
0.3444835144501039
0.3130766479573457
0.28083447746684237
0.24850739164229368
0.2168143775780035
0.18641091516156758
0.15786018733003224
0.13161019597709758
0.1079789208755636
0.08714888121162621
0.06917143709346085
0.05398004492639928
0.041410641522976216
0.031226566349566397
0.023145082868379564
0.016862683727931697
0.012076908570419211
0.008503221803853702