# vtk DataFile Version 4.1 
COMMENT
ASCII
DATASET STRUCTURED_POINTS 
DIMENSIONS 100 100 1 
ORIGIN 0 0 0
SPACING 0.12693303650867893 0.12693303650867893 0 
POINT_DATA 10000
SCALARS U double 1
LOOKUP_TABLE default
0.0
0.0
0.0
0.0
0.0
0.0
0.0
0.0
0.0
0.0
0.0
0.0
0.0
0.0
0.0
0.0
0.0
0.0
0.0
0.0
0.0
0.0
0.0
0.0
0.0
0.0
0.0
0.0
0.0
0.0
0.0
0.0
0.0
0.0
0.0
0.0
0.0
0.0
0.0
0.0
0.0
0.0
0.0
0.0
0.0
0.0
0.0
0.0
0.0
0.0
0.0
0.0
0.0
0.0
0.0
0.0
0.0
0.0
0.0
0.0
0.0
0.0
0.0
0.0
0.0
0.0
0.0
0.0
0.0
0.0
0.0
0.0
0.0
0.0
0.0
0.0
0.0
0.0
0.0
0.0
0.0
0.0
0.0
0.0
0.0
0.0
0.0
0.0
0.0
0.0
0.0
0.0
0.0
0.0
0.0
0.0
0.0
0.0
0.0
0.0
-1.9609432602376884e-13
9.618139546215733e-11
1.0828960642037537e-09
6.225726946004526e-09
2.567860400459664e-08
8.575130211816093e-08
2.4613059810493716e-07
6.288508880715775e-07
1.46306523895749e-06
3.149222758707387e-06
6.344936251987228e-06
1.20725941734115e-05
2.1845783013560025e-05
3.780816829283999e-05
6.287509525284101e-05
0.00010086533175008415
0.00015660856869745575
0.0002360138795090926
0.0003460854965118808
0.0004948749522906763
0.0006913626149770411
0.0009452665123357387
0.0012667815848231056
0.001666257602420474
0.0021538284395602614
0.002739008844482781
0.00343027701905229
0.004234662147788375
0.00515735552793631
0.006201362320584066
0.007367208413911693
0.008652713756261782
0.010052840079998121
0.011559617476248327
0.01316215103047806
0.014846705866570963
0.0165968665870598
0.018393765292824684
0.020216371116418573
0.02204183346473237
0.02384587086196274
0.02560319731462679
0.027287978377764248
0.02887430947481198
0.03033670940793069
0.03165062229756694
0.03279292133324922
0.033742407646533024
0.03448029730061545
0.03499068882537792
0.03526100293499906
0.035282385096252346
0.03505006053544622
0.03456363015253475
0.03382729471417157
0.03284999366241735
0.031645443918958634
0.030232063209134456
0.02863276177685125
0.026874586205626487
0.024988200027600826
0.02300718893967236
0.02096718517587167
0.01890481740281642
0.016856510371609342
0.01485718206339281
0.012938912617518469
0.011129683822873498
0.009452303337194264
0.00792362681622725
0.006554168921194506
0.005348150902767437
0.004303974783304886
0.003415054375165857
0.002670886075424563
0.0020582195369854474
0.0015621947641399762
0.0011673436201873513
0.0008583984296578362
0.00062089390931599
0.00044157969419162985
0.0003086747946115754
0.00021199532577165472
0.0001429800953952119
9.463242413818007e-05
6.139478516607907e-05
3.897503430193998e-05
2.414595824326992e-05
1.4540284773796764e-05
8.459771166895984e-06
4.710446780632159e-06
2.4688200758778163e-06
1.178048131129465e-06
4.697788442759225e-07
1.0644138720673771e-07
-6.070111586960671e-08
-1.2128119551111226e-07
-1.2541505040204648e-07
-9.254728077393268e-08
-4.0375541193054215e-09
-3.9800842565118535e-13
3.31381377281407e-10
3.001336018048622e-09
1.518830462247725e-08
5.7005452100408713e-08
1.7623129625801081e-07
4.7323313634086464e-07
1.1392366814914953e-06
2.510269530912549e-06
5.13742571381289e-06
9.871658893206827e-06
1.7958407503711642e-05
3.11344385597789e-05
5.171689410849748e-05
8.267312728546732e-05
0.0001276598780887986
0.0001910218041347884
0.000277742247599075
0.0003933430606339404
0.000543734838052612
0.0007350234506977345
0.000973282784261753
0.0012643066130900297
0.0016133542790934374
0.002024905186951501
0.002502436130634128
0.0030482333431393624
0.0036632482231829513
0.004347002300426951
0.005097543514729456
0.005911452622903281
0.0067838957567026795
0.007708717002361623
0.00867856343388034
0.009685034311761365
0.010718846097145147
0.011770005426558223
0.012827983118741117
0.013881883508429595
0.014920604793882847
0.015932987530905853
0.016907949810730363
0.017834608947581355
0.01870239061857381
0.019501127304663607
0.020221148550481145
0.020853365976553576
0.02138935613149264
0.021821444165216638
0.022142790951400787
0.02234748572219373
0.0224306455624154
0.022388522337731757
0.02221861692245778
0.02191980007178107
0.021492439027452157
0.02093852890680266
0.02026182783435253
0.01946799407385288
0.018564721268428945
0.01756186335548275
0.016471533136612
0.015308148070955957
0.014088385343896002
0.012830999219331703
0.011556452236020365
0.010286323344968517
0.009042484050547795
0.0078460769713592
0.006716382697362203
0.005669707193308407
0.004718447350811388
0.0038704835261689626
0.0031290008303286247
0.0024927640126841347
0.0019567840542030882
0.0015132433733907112
0.00115251193351574
0.0008640968694749045
0.0006374158031570555
0.0004623486763593224
0.0003295812283897392
0.00023078823690629447
0.00015871183010739945
0.00010717697661916173
7.106606798829312e-05
4.625921653416525e-05
2.95418386850335e-05
1.8484530936896937e-05
1.1306489537527648e-05
6.737400371678978e-06
3.891534609958222e-06
2.162760649371796e-06
1.1430732326382205e-06
5.625289719331137e-07
2.4623743669201864e-07
8.398197740898312e-08
9.204478342054633e-09
-1.4389806626943167e-08
-7.201804495026494e-10
-4.153724927573364e-13
1.066263424146356e-09
8.492133655822312e-09
3.9718014796065655e-08
1.407787729925163e-07
4.1606071792878834e-07
1.0766816318218942e-06
2.5123279147827714e-06
5.389697469490486e-06
1.0777776085515064e-05
2.0296276725800152e-05
3.6279206571738315e-05
6.194137087452716e-05
0.00010153238200946794
0.00016046101394781993
0.00024537289942712153
0.00036416669199783926
0.0005259376945824481
0.0007408431308061023
0.0010198890885945527
0.001374645029892971
0.0018168970189174798
0.0023582549873678183
0.003009732119791863
0.0037813156890959946
0.004681548460756074
0.005717138314004464
0.006892611290342316
0.008210020207476668
0.009668717601587941
0.01126519837824973
0.012993014400282936
0.01484276048957658
0.01680212907175302
0.018856028988748812
0.02098676283628123
0.02317425650512726
0.025396334347140306
0.027629033465605697
0.029846950956889436
0.03202361841986695
0.03413189862004935
0.03614439977222515
0.03803390342123056
0.03977380229330885
0.04133854470261857
0.04270408207335006
0.043848315823723005
0.044751539202726856
0.04539686863031622
0.04577065764169653
0.04586288468818448
0.045667503878090016
0.04518274542987075
0.04441135047385377
0.04336072335626994
0.04204298439032948
0.04047490773441994
0.03867773328983422
0.03667684831200424
0.03450134319753858
0.03218345507568923
0.029757919966916794
0.027261256643070667
0.02473100098607056
0.022204898800108435
0.01972005113289899
0.017311995917408993
0.015013711454093378
0.01285454739685565
0.010859128029858207
0.009046322420779233
0.007428419757050585
0.006010665446403979
0.004791288653833665
0.003762082135102336
0.002909495012689645
0.0022160971356484363
0.0016622023889898807
0.0012274209880522794
0.0008919513659045746
0.0006375038419943721
0.0004478408583138838
0.00030899230505152886
0.0002092415351895257
0.00013897744840330289
9.048361248783655e-05
5.770473745027792e-05
3.6007739605540714e-05
2.1944164806290616e-05
1.302002481806404e-05
7.48180523329342e-06
4.128310028627097e-06
2.1553378820364736e-06
1.0352128054345478e-06
4.283598375946405e-07
1.2128436294248787e-07
-1.4896472071743596e-08
-4.917805223456853e-08
-2.150340680318064e-09
1.2821267839667437e-12
3.0961629298516756e-09
2.2099406890264958e-08
9.591203271110143e-08
3.2067885734464523e-07
9.025971627045043e-07
2.238508017436029e-06
5.028233897870745e-06
1.0418712637803595e-05
2.0174705689299606e-05
3.686498994619569e-05
6.404748829357795e-05
0.00010643280579891955
0.00017000398164043228
0.0002620714376478371
0.0003912461291493123
0.0005673203398896538
0.000801053591022807
0.0011038697161472439
0.0014874792146840738
0.001963447592059162
0.002542734844997972
0.0032352332011929183
0.004049329660109808
0.004991517086175149
0.0060660730741098215
0.0072748201578423655
0.008616974816743126
0.010089086742480196
0.011685064455329798
0.013396278949092977
0.015211733799159546
0.017118288150755053
0.0191009181610782
0.02114300266219487
0.02322661985056514
0.025332843479694833
0.02744202912100746
0.029534083369490254
0.03158871123958712
0.033585639292802304
0.035504814166468605
0.03732657806992767
0.0390318244426844
0.04060213831007118
0.042019926916920115
0.04326854696174521
0.04433243517940617
0.04519724910088721
0.04585002450450268
0.046279355286097876
0.04647560011088044
0.0464311181396415
0.04614053322130142
0.0456010221297174
0.044812617725566335
0.043778512575747844
0.04250534308670762
0.04100342946632666
0.03928694396273368
0.03737398003034714
0.035286499171108585
0.03305014012220523
0.03069388540167119
0.028249590197159245
0.025751384708585862
0.023234960614419833
0.020736745259583685
0.018292957490309417
0.01593853477342355
0.013705931756377911
0.011623821961811345
0.009715784798471188
0.00799911643365521
0.006483943380313279
0.0051728187558583456
0.004060929411333153
0.0031369421881249438
0.0023843942690992452
0.0017834233712144664
0.0013125738478604709
0.0009504232214546329
0.00067684405947993
0.0004738207143848646
0.00032584271616743787
0.00021996672136660316
0.00014566450956046454
9.456197135426432e-05
6.014133559401993e-05
3.7445031991145266e-05
2.2796444261079357e-05
1.3542710231630269e-05
7.823281440347552e-06
4.369014202415703e-06
2.3360669154295633e-06
1.1760426625705123e-06
5.400832090796128e-07
2.1173947654853512e-07
6.115117754284465e-08
2.5948013012346677e-09
1.0018086827420341e-11
8.284583544334817e-09
5.3992720824916086e-08
2.1958619779877223e-07
6.972267025856516e-07
1.8791154373703193e-06
4.487934893940795e-06
9.749164543658973e-06
1.9600513932043473e-05
3.692620861743327e-05
6.57966947788781e-05
0.00011168889588527327
0.00018165961832626896
0.00028444572582118867
0.00043046931879867377
0.000631733779481234
0.0009016061098951223
0.0012544911734841482
0.0017054129161410804
0.0022695252641391434
0.0029615804132368936
0.003795384306168376
0.004783268334608196
0.005935603126946597
0.007260375349485076
0.008762842507471539
0.010445274516595313
0.012306784951154401
0.014343249827266884
0.01654730783254463
0.01890843317930692
0.0214130707039298
0.024044822321913243
0.026784674274141936
0.029611255535794936
0.032501119080840045
0.03542903920308094
0.03836831962826879
0.041291108592165275
0.04416871832867106
0.04697194746731896
0.0496714056649288
0.05223784039515814
0.054642466206033205
0.05685729694723226
0.05885548148268264
0.060611643251822264
0.06210222372985074
0.06330582936108474
0.06420358089037628
0.06477946317843573
0.06502067253318508
0.0649179572874605
0.06446594576007249
0.06366345380175226
0.06251376180536058
0.06102484834640268
0.05920956461401163
0.05708573078679309
0.05467613308412053
0.05200839929656382
0.04911473232575648
0.04603148673585092
0.04279858302535548
0.039458767515722484
0.03605673998387549
0.0326381825020749
0.029248727094638983
0.02593289417059074
0.02273301959120176
0.019688172199812233
0.01683305620444252
0.01419690441403478
0.011802403413925971
0.009664743626800322
0.007790937126416495
0.006179568719507966
0.004821119928883476
0.003698925459860093
0.0027907037731408836
0.0020704822408807782
0.0015106532834172576
0.0010838797803111755
0.0007646209091828461
0.0005301526348914911
0.00036107365484522276
0.00024138124856720278
0.00015825024343434034
0.00010165058678832464
6.390946071847463e-05
3.9283269869797004e-05
2.357002517302705e-05
1.377128306864007e-05
7.803897911320522e-06
4.260020251930406e-06
2.2137595912146724e-06
1.0720296384085858e-06
4.6490903776777904e-07
1.6565128751571674e-07
7.2020823060518985e-09
4.119561300420738e-11
2.0638495485744978e-08
1.2435005047172657e-07
4.769494119050832e-07
1.4437872423647831e-06
3.735457541291435e-06
8.60597861117711e-06
1.809901886297263e-05
3.5327866932875e-05
6.47651740007627e-05
0.0001125109628124238
0.00018650367077824526
0.00029664006999418333
0.0004547758998269145
0.0006745891913105485
0.0009713010990466608
0.001361262750391187
0.0018614293151554932
0.0024887526248431875
0.003259530170955555
0.004188750735222437
0.005289475383814486
0.006572287699499246
0.008044839847218406
0.009711512419202878
0.011573197008234531
0.013627201987283526
0.015867274685221543
0.018283727448988787
0.02086365114369223
0.023591197436231687
0.026447910560670636
0.02941308990788825
0.0324641664091796
0.035577077983156916
0.03872663200511634
0.04188684560110543
0.04503125738175595
0.04813320688351495
0.05116608039544662
0.05410352397640612
0.05691962629832055
0.059589075494871954
0.062087295470084874
0.06439056814937685
0.06647614895253297
0.06832238333812053
0.06990883259949554
0.07121641715008596
0.07222758526301702
0.07292651454656454
0.07329935224066167
0.07333449859425958
0.07302293500774529
0.07235859518785984
0.07133877318364626
0.06996455682816516
0.06824126887966821
0.06617889127854756
0.06379244090338625
0.06110225885840327
0.05813417090433951
0.05491947576716559
0.051494722436906316
0.047901248475101785
0.04418446884955491
0.04039292703013044
0.03657714292949198
0.03278831019096369
0.029076903153259184
0.025491249464494426
0.022076110992062994
0.01887130216078844
0.015910372619141307
0.013219398658978702
0.010815964352146684
0.008708455726041255
0.006895816651236049
0.005367900162512281
0.004106482016109355
0.0030868932956367107
0.0022801054176035574
0.0016550040324051895
0.001180552053612916
0.0008275793472394264
0.0005700337680597904
0.0003856513397920831
0.00025611340025330335
0.00016682709852942486
0.00010648403732557479
6.65300993281955e-05
4.063766331680287e-05
2.422908314778611e-05
1.4069354816946244e-05
7.929006450684257e-06
4.3118369947469426e-06
2.240703482249454e-06
1.0931114980244474e-06
4.6843892326265945e-07
2.0294450081339982e-08
1.3387527617401592e-10
4.824973703052459e-08
2.7131243506529317e-07
9.867159493605133e-07
2.8579657859181633e-06
7.117486778335125e-06
1.5851794312299763e-05
3.233360877036316e-05
6.137287171546132e-05
0.00010964843257647994
0.00018597681633673136
0.0003014753828272283
0.00046958455254269784
0.0007059265786019081
0.0010279946066069946
0.0014546829940648048
0.002005685569350687
0.0027008006505549404
0.003559188909505829
0.004598632102228275
0.005834837639638896
0.007280826905420311
0.008946435476461501
0.010837942413457159
0.012957834907015004
0.015304704866695114
0.01787326625959984
0.020654476513135685
0.023635742141410617
0.026801187731479704
0.03013196816133673
0.033606605958689445
0.03720133857748408
0.04089046363735547
0.04464667348312944
0.04844137351053295
0.05224498139508271
0.05602720656107578
0.05975731091198471
0.0634043530383402
0.066937418884031
0.07032584226511931
0.07353941878131938
0.07654861662096438
0.07932478760804686
0.0818403816338936
0.08406916739926573
0.08598646219032297
0.08756937322934115
0.08879705296179168
0.08965097042421889
0.09011520051358125
0.09017673244984849
0.08982579786082054
0.08905621756528699
0.08786576411304962
0.08625653428128137
0.08423532187626476
0.08181397627107759
0.07900972619129704
0.07584544165638821
0.07234980037710573
0.06855731946010377
0.06450821063866805
0.06024801940948332
0.055827017224700244
0.05129933213749948
0.04672182605982356
0.042152752673095054
0.03765025350804392
0.03327076464568156
0.02906740876420962
0.025088437462566025
0.021375773462618926
0.01796369216638363
0.014877687153346687
0.012133587497196568
0.009737027660814215
0.007683393887215723
0.005958361822473439
0.004539084139905234
0.003395987906824783
0.0024950237608157184
0.0018001100614765603
0.001275470278099086
0.0008875884749329967
0.0006065977301166169
0.0004070396117240959
0.0002680507139779811
0.00017311320439927734
0.00010953676188211263
6.782495391702177e-05
4.103824782156314e-05
2.421897918112937e-05
1.3905330522322524e-05
7.737344625174546e-06
4.146305400663844e-06
2.112329949096722e-06
9.557465984401442e-07
4.138929819389166e-08
3.7753408843927713e-10
1.0649652511315667e-07
5.629741929250169e-07
1.949871733668102e-06
5.420082024650876e-06
1.302172640652468e-05
2.8084505770632746e-05
5.563762915710346e-05
0.00010281318611789415
0.00017918086478475536
0.00029696004966396275
0.00047106400947935604
0.0007189468458213237
0.0010602445125761856
0.0015162232138606236
0.00210906852008727
0.00286106389604867
0.0037937163159713276
0.004926888713431098
0.00627799471072602
0.007861301726771526
0.009687375962236757
0.011762688796312305
0.014089390506218075
0.01666524526370952
0.019483711927643386
0.022534148623484
0.025802115461529856
0.029269748678662628
0.03291618049340511
0.03671798146488807
0.04064960557694163
0.044683822132542204
0.04879212244765581
0.05294509299707558
0.057112749915864215
0.06126483251767867
0.06537105574500474
0.06940132325385201
0.07332590422277126
0.07711557804123771
0.08074175185350016
0.08417655658057768
0.08739292757152547
0.09036467648561887
0.09306656140276641
0.09547436250543327
0.09756497095866243
0.09931649880351197
0.10070841772159649
0.10172173435150836
0.10233920934677988
0.1025456264429611
0.1023281163119508
0.10167653777469714
0.10058391586508164
0.09904693214760779
0.0970664574859683
0.09464811110568706
0.09180282237538395
0.08854736351133648
0.08490481291687021
0.08090490099439822
0.07658418435899753
0.07198599224714661
0.06716009265700704
0.06216203732609114
0.057052165077289156
0.05189427152603174
0.04675398626658661
0.04169693058661164
0.03678675246007843
0.0320831453397802
0.027639951656431027
0.023503435504364106
0.019710791450318524
0.01628894840867102
0.013253734608431631
0.010609487199830202
0.008349202753624834
0.006455312711848233
0.004901116206282896
0.003652812522935399
0.0026719670482157135
0.001918151465740745
0.0013514549489494383
0.0009345868310950002
0.0006343777175090797
0.00042260841983857936
0.0002762173445963036
0.00017702477590416437
0.0001111506646567444
6.829382417275739e-05
4.10011471946828e-05
2.4005994863362005e-05
1.3671256620086695e-05
7.541753987133658e-06
3.9881852988944135e-06
1.8815684979178003e-06
8.121178494283203e-08
9.605326008426352e-10
2.2299986930124e-07
1.1147285745184962e-06
3.6904142200129903e-06
9.870525368778108e-06
2.29223941191682e-05
4.7951273054187255e-05
9.238693284727383e-05
0.00016639972797817952
0.0002831786960591255
0.00045901412538803377
0.0007131466317305966
0.0010673707304978595
0.0015454087446781183
0.002172096192002629
0.002972438926736116
0.0039706130560528425
0.005188980387460503
0.006647185719285665
0.00836138955035577
0.01034367321418429
0.012601635574109059
0.015138183475362875
0.01795150380365834
0.021035194249527947
0.024378523083787868
0.02796678524042506
0.03178172223044959
0.035801976112787515
0.040003552099123076
0.04436026958884756
0.04884418685931589
0.053425989775323146
0.0580753393956102
0.06276117706020704
0.0674519883820594
0.07211602957388273
0.0767215208119832
0.08123681200205177
0.08563052650886878
0.08987168828022485
0.09392983745975822
0.09777513915018857
0.10137848954417086
0.10471162325200692
0.1077472253733847
0.11045905171756913
0.11282206059090026
0.11481255974333944
0.11640837237910666
0.11758902654790025
0.11833597266980046
0.11863283429775581
0.11846569733098407
0.1178234425570922
0.11669812537107882
0.11508540451273981
0.1129850183881858
0.11040130273460921
0.10734373687613605
0.10382749759180054
0.09987398992061454
0.09551131367588639
0.0907746141221548
0.0857062568346576
0.08035576241225313
0.07477943899281078
0.06903966181693298
0.0632037708290471
0.057342588965512246
0.051528602071932904
0.04583388021414957
0.04032785174500139
0.03507505888930723
0.03013302361391632
0.02555033785354261
0.021365071034748676
0.01760357064172482
0.014279725113636137
0.011394760863984263
0.00893764509646165
0.006886146579308426
0.005208554733783106
0.0038659735370598605
0.002815008231349137
0.002010579667996643
0.0014085639847831778
0.0009679818419936516
0.0006525476051102829
0.00043151006351002685
0.00027983749633689927
0.000177889671864684
0.00011076078547619273
6.747150333908111e-05
4.0149917839525294e-05
2.3289869188110236e-05
1.3125779821982493e-05
7.116254871192968e-06
3.4415487634187616e-06
1.4808957528498285e-07
2.2512686162880273e-09
4.447795989696688e-07
2.112458267859125e-06
6.7055514288504924e-06
1.7296114798670497e-05
3.889466479474846e-05
7.90305249914683e-05
0.0001482649708017706
0.0002605532289316904
0.000433381830055166
0.000687631294304757
0.0010471463283064694
0.0015380307955942321
0.002187716742218536
0.003023880882865699
0.0040732952529950696
0.005360700449660929
0.006907781204803085
0.008732307542337815
0.01084748374750056
0.01326152513976006
0.01597746201839173
0.018993153170309293
0.02230147911293094
0.02589067806589254
0.02974478510982379
0.03384413626041943
0.038165903207482046
0.04268463016306564
0.04737275066684723
0.05220106854418759
0.05713919296563092
0.06215592240002968
0.06721957606029284
0.07229827422811971
0.0773601707254254
0.08237364194197593
0.08730743741552317
0.09213079716980424
0.09681354100138134
0.10132613479174174
0.10563973879684077
0.10972624279231888
0.11355829296304493
0.11710931553413519
0.12035354234592213
0.12326604386563628
0.1258227754844555
0.12800064334430405
0.12977759634151692
0.13113275132134147
0.13204655875041177
0.132501016254261
0.1324799372245459
0.13196928108970465
0.13095755061482234
0.12943625952115337
0.12740047053076706
0.12484939937639737
0.12178707413313664
0.11822303128506277
0.1141730202746655
0.10965967722152115
0.10471311677233094
0.09937137991621599
0.09368066692749243
0.08769528081057626
0.08147721047263992
0.07509529688380996
0.06862395118469095
0.06214143046562645
0.05572772126323175
0.04946212619367929
0.043420687191346195
0.03767360168410357
0.032282791364709254
0.027299768429342754
0.02276391843055288
0.01870129217808725
0.015123978972003656
0.012030120201670122
0.009404607648929208
0.007220481391420442
0.005440987645527132
0.004022178007175965
0.002915843954335859
0.0020725106704384782
0.0014441890764709687
0.0009866193360771292
0.0006608283022652323
0.0004339440069955948
0.0002793294609721383
0.00017618609558989223
0.0001088179587785959
6.574188242182015e-05
3.878952521567014e-05
2.229043790590979e-05
1.2352057119842645e-05
6.097049879204704e-06
2.613778273824089e-07
4.924291041531978e-09
8.478873994079916e-07
3.841316176099355e-06
1.1722786433322448e-05
2.9218745649116213e-05
6.37254476160638e-05
0.0001259367873457342
0.00023031295576276433
0.0003952962676043277
0.0006432079119728909
0.0009997988936288373
0.0014934724586317095
0.0021542358990098175
0.0030124702981023364
0.004097623557102495
0.005436933914919925
0.007054279748594478
0.00896923019061558
0.011196344388204051
0.013744739404280419
0.01661792145181542
0.01981385487745577
0.02332522935327959
0.02713987827256673
0.031241299701204046
0.035609234202737275
0.04022025999753669
0.04504837382298104
0.05006553431361878
0.05524215278556132
0.060547523366781035
0.0659501901314536
0.07141825317463754
0.07691961847747444
0.0824221981445907
0.08789406837936006
0.09330359264508521
0.09861951706938793
0.10381104447981651
0.10884789266519479
0.11370034165397579
0.11833927406721736
0.12273621199111927
0.12686335335327964
0.13069361049535103
0.13420065352216143
0.1373589610789906
0.14014388146760362
0.14253170745777644
0.14449976877839224
0.14602654706315432
0.14709181894339582
0.1476768339575818
0.14776453487557528
0.14733982875413315
0.14638991732394788
0.14490469486610097
0.14287722021318236
0.14030426651146177
0.13718694750625507
0.1335314120241044
0.12934958883227637
0.12465995223000892
0.11948826503147703
0.1138682410311306
0.10784205523379375
0.10146061940791733
0.09478353579499216
0.08787864625964355
0.0808211106024564
0.07369197768940584
0.066576255626854
0.05956053841457968
0.052730299136074445
0.04616700459238052
0.03994523458698062
0.034129995508837115
0.02877440286372214
0.023917877283469106
0.019584962820343773
0.015784843022730463
0.012511601414487651
0.009745243124458
0.007453453750495556
0.0055940127580376515
0.004117703937583358
0.002971489221615404
0.0021016577275474574
0.0014566517912267141
0.0009893171748061277
0.0006584190058658948
0.0004293853504160906
0.00027435579380270624
0.00017169580286289024
0.00010517436586901074
6.299263527818085e-05
3.6802898307104576e-05
2.0761702391948843e-05
1.0410378284408543e-05
4.4457316199422805e-07
1.0142351213401641e-08
1.5494199217280524e-06
6.718357397866989e-06
1.975749898115981e-05
4.767068668689983e-05
0.00010098000657031603
0.00019432721674313199
0.00034679751851179847
0.0005818774518779192
0.0009270064162893173
0.00141273619523669
0.002071564357470133
0.00293654671173511
0.004039815678707824
0.005411134043644102
0.007076599157153566
0.00905758585019725
0.011369982880525122
0.014023743302554481
0.017022738399573176
0.020364880844218867
0.024042467014037772
0.028042680879270435
0.032348201519353775
0.03693786140126314
0.04178731113724861
0.046869656707824746
0.05215604557961869
0.05761618767399863
0.06321880508503445
0.06893201051442902
0.07472361858960352
0.0805613967612315
0.08641326365174826
0.09224744289991911
0.09803258005902311
0.10373782925281338
0.1093329153076267
0.11478817612901578
0.12007458928478403
0.12516378615038204
0.1300280565855955
0.13464034693475263
0.13897425415170736
0.1430040190137901
0.14670452167374554
0.1500512831777948
0.1530204770312568
0.15558895540856965
0.15773429517707896
0.15943486953186403
0.1606699517174513
0.16141985802436137
0.16166613795174195
0.16139182003880462
0.16058172224664038
0.1592228357036241
0.1573047898132095
0.15482040478009032
0.1517663340927017
0.14814379394091154
0.14395936853897381
0.13922586962587727
0.13396321510043688
0.12819927636453674
0.1219706276792173
0.11532311562681445
0.10831215533882503
0.10100265583503215
0.0934684831625244
0.08579139001220946
0.0780593755398575
0.0703644879753814
0.06280014058903187
0.05545807068198139
0.04842512146100956
0.041780058441633176
0.03559063944029098
0.029911140093808568
0.02478050096942467
0.020221216957119967
0.016239043157965274
0.012823547350788098
0.009949494504871113
0.007578997293177466
0.005664303933192279
0.0041510246879022765
0.0029815347481302506
0.002098254018855979
0.001446511497745979
0.0009767603480020856
0.0006460103694580571
0.000418464368534901
0.00026545506687152156
0.0001648550319811369
0.00010015973329410467
5.9416115474642545e-05
3.405496580111837e-05
1.7304204721018243e-05
7.358998613115493e-07
1.980014737994844e-08
2.721249313774792e-06
1.1325560503050033e-05
3.216167619112553e-05
7.523850980250314e-05
0.00015499784554554976
0.00029078229110308414
0.0005068907279066829
0.000832160258466933
0.0012990815333853085
0.0019425196811706992
0.0027981638908811607
0.00390085742867816
0.005282964230532023
0.006972910763655124
0.0089940085483393
0.011363621111898831
0.014092696594949218
0.017185649722650995
0.02064054827506086
0.024449541218672106
0.028599458068624652
0.03307251025014503
0.03784703288170895
0.04289821697625455
0.0481987952322671
0.05371965751561796
0.059430383541600934
0.06529968944232319
0.07129579160960849
0.077386695551072
0.08354041982237974
0.08972516584540612
0.09590944405316532
0.1020621657408037
0.10815270859622723
0.11415096239598717
0.1200273599591865
0.12575289725879407
0.13129914564304623
0.136638258426405
0.14174297365152536
0.14658661457019576
0.15114308930890696
0.1553868912441992
0.15929310179309786
0.16283739761366917
0.165996064609332
0.16874602164632022
0.1710648575411046
0.17293088566985954
0.17432322150656418
0.1752218895076295
0.17560796700084125
0.1754637740360117
0.17477311938714848
0.17352161385810558
0.17169706244071478
0.16928994631161196
0.16629400364313177
0.16270691419255603
0.15853108606680635
0.15377453347555392
0.14845182145655036
0.14258503765927294
0.1362047330758196
0.12935075464619833
0.12207287534628057
0.11443111494252216
0.10649564091470265
0.09834614799938739
0.09007063945629672
0.08176357462418957
0.07352340368031689
0.06544957611009196
0.057639175168662446
0.050183385626017915
0.04316403616209497
0.03665046454988146
0.030696932815272287
0.025340776509568307
0.020601416328852245
0.01648030043804809
0.01296178683686419
0.01001491657199817
0.00759596734585796
0.0056516118857062505
0.0041224416203778464
0.00294656667018367
0.0020629846028164802
0.0014144360055764946
0.0009495369840964256
0.0006240854075594727
0.0004015558594997391
0.00025290049809289085
0.00015583488610319783
9.378417017659583e-05
5.4528274680726505e-05
2.8020788064301884e-05
1.186455858190564e-06
3.6825279709478205e-08
4.604071384824356e-06
1.843785824009575e-05
5.0651461161037465e-05
0.00011505441399135219
0.00023078821865801742
0.0004225258185083382
0.0007201253225164038
0.0011577302106926314
0.0017723909974079826
0.002602349486172413
0.003685165581201893
0.005055874466581436
0.006745341739683387
0.008778943391216477
0.011175646150530873
0.013947511286139561
0.01709959919312296
0.020630217928336164
0.02453143824922558
0.028789790156362297
0.03338705918344756
0.03830111157293851
0.04350669270715806
0.04897615979003968
0.054680125527735275
0.06058800295511893
0.06666845185591161
0.07288973428349428
0.07921999078847089
0.08562745062800835
0.0920805891022703
0.09854824385731495
0.10499970005492389
0.11140475216666333
0.11773374810731525
0.12395761967262513
0.13004790188380752
0.13597674289002798
0.14171690551419489
0.14724176129136116
0.1525252778736568
0.15754200088980072
0.162267031685909
0.1666760027837246
0.17074505333287396
0.17445080728101725
0.17777035743135466
0.18068125900766197
0.18316153682370986
0.18518971068882734
0.18674484431372965
0.18780662374962212
0.18835547232681632
0.18837271015784557
0.18784076748873058
0.18674346240403186
0.18506635440375627
0.18279718584145682
0.1799264226807717
0.17644790390718512
0.17235960455332444
0.1676645099847624
0.16237158829577553
0.1564968331241493
0.15006433116222043
0.1431072880992531
0.13566892557671392
0.12780314287721986
0.11957482431567476
0.11105967102121414
0.10234344820629633
0.09352056915889839
0.08469198573005975
0.0759624192215443
0.06743703853282301
0.0592177639842039
0.051399433530579276
0.04406610243078409
0.03728775134007955
0.03111765092695156
0.02559057926910343
0.020722020978912237
0.01650840375045926
0.012928355021143301
0.009944890660964665
0.007508378791429389
0.0055600564655976705
0.004035821524441659
0.0028699882363647762
0.0019986965029519083
0.0013627087348396757
0.0009094136784579135
0.0005939678409463108
0.000379618439811451
0.0002373368810849923
0.000144904882833492
8.541822448355702e-05
4.434570414822198e-05
1.869062750871211e-06