# vtk DataFile Version 4.1 
COMMENT
ASCII
DATASET STRUCTURED_POINTS 
DIMENSIONS 100 100 1 
ORIGIN 0 0 0
SPACING 0.12693303650867893 0.12693303650867893 0 
POINT_DATA 10000
SCALARS U double 1
LOOKUP_TABLE default
0.0
0.0
0.0
0.0
0.0
0.0
0.0
0.0
0.0
0.0
0.0
0.0
0.0
0.0
0.0
0.0
0.0
0.0
0.0
0.0
0.0
0.0
0.0
0.0
0.0
0.0
0.0
0.0
0.0
0.0
0.0
0.0
0.0
0.0
0.0
0.0
0.0
0.0
0.0
0.0
0.0
0.0
0.0
0.0
0.0
0.0
0.0
0.0
0.0
0.0
0.0
0.0
0.0
0.0
0.0
0.0
0.0
0.0
0.0
0.0
0.0
0.0
0.0
0.0
0.0
0.0
0.0
0.0
0.0
0.0
0.0
0.0
0.0
0.0
0.0
0.0
0.0
0.0
0.0
0.0
0.0
0.0
0.0
0.0
0.0
0.0
0.0
0.0
0.0
0.0
0.0
0.0
0.0
0.0
0.0
0.0
0.0
0.0
0.0
0.0
-1.3752969024210573e-12
6.745629918614072e-10
7.586680395166436e-09
4.357952902044847e-08
1.7960388355528997e-07
5.993013242746692e-07
1.7188312800343405e-06
4.388128064635033e-06
1.0201390446761058e-05
2.1941335334798434e-05
4.4172400705996484e-05
8.398249421977148e-05
0.00015185214688050053
0.0002626063619221508
0.0004363812644785848
0.0006995184359303914
0.001085287862421145
0.0016343381765485602
0.002394781463866309
0.00342183899540962
0.004777002076874439
0.006526695908935306
0.008740470414181854
0.011488776751544767
0.014840418405708143
0.01885978873459739
0.023604021075580406
0.029120182384232137
0.035442637314565956
0.04259069784741588
0.05056665578609319
0.05935427370291969
0.06891778630969152
0.07920144064088856
0.0901295814611135
0.10160726911070374
0.1135214013215107
0.12574229868497944
0.1381257053858067
0.1505151521799086
0.16274462683312974
0.1746414976488158
0.18602963753546994
0.19673269853501307
0.20657748913074817
0.21539740835527352
0.22303589122079176
0.22934981895161097
0.2342128447469034
0.23751858137730578
0.23918359106420822
0.239150111235046
0.23738844245365612
0.23389891768910234
0.22871336561222752
0.2218959750815762
0.21354346342786384
0.203784447501558
0.19277791402055874
0.18071068605273477
0.16779378922601448
0.1542576412442076
0.14034603117365577
0.12630893146600283
0.11239430344809256
0.09883921472143187
0.08586076831911707
0.07364751441274843
0.06235212715012856
0.05208613016645665
0.042917308043690754
0.034870145481277544
0.027929234849931272
0.022045170988972004
0.017142112975480805
0.01312602342729472
0.009892634932341694
0.0073344137349028605
0.005346111419718036
0.0038288127878437733
0.002692618184286976
0.0018582054073934295
0.0012575175329605662
0.0008337698913892675
0.0005409160304698297
0.00034268979116901726
0.00021134857824428566
0.00012626034201195508
7.247988588176349e-05
3.9437384947872713e-05
1.9818361012458e-05
8.664958158441856e-06
2.6884154510206873e-06
-2.3995631516816464e-07
-1.4580109570663575e-06
-1.7763940686316673e-06
-1.6617156412329332e-06
-1.3523855390845912e-06
-8.957156745993931e-07
-3.907732870660264e-08
-2.7942910776032654e-12
2.326496452331436e-09
2.105578387432736e-08
1.0647898541384289e-07
3.993630370401723e-07
1.2337490255018823e-06
3.310594439132667e-06
7.963917561875175e-06
1.7535191858402833e-05
3.58599028581768e-05
6.88531361843182e-05
0.00012516090997057817
0.0002168238768601633
0.0003598836600893336
0.0005748528434658083
0.0008869699067680525
0.0013261710877194304
0.001926731466800317
0.0027265551721929876
0.003766126036829206
0.005087161353230738
0.0067310387586269225
0.008737086651082982
0.01114083989946453
0.013972364252704017
0.017254745293202346
0.021002822542580173
0.0252222286256146
0.029908769754784476
0.03504815970578349
0.04061609709371887
0.04657865681030806
0.05289295203357215
0.059508013769970516
0.06636583040464612
0.07340248977175018
0.08054937008009945
0.08773433274842488
0.09488287888374176
0.10191924088479762
0.10876739068324892
0.11535195579733219
0.12159904315914286
0.1274369782130569
0.1327969728061162
0.13761373972342997
0.14182607424839122
0.1453774237879599
0.14821646539882605
0.15029770807637385
0.15158213216810792
0.15203787270116173
0.15164094748178808
0.15037602548230228
0.14823722731053154
0.14522894822369617
0.14136669512724315
0.1366779306573574
0.13120291598717032
0.12499553341016977
0.11812404289424519
0.1106716780489288
0.10273691639928895
0.0944331769938868
0.08588762907774554
0.0772387746008471
0.06863253392346869
0.06021674552425672
0.05213428380015521
0.044515357241561464
0.037469882107295314
0.03108102144273492
0.02540093937691474
0.020449509650881628
0.016216187631956706
0.012664643529733746
0.009739240049566583
0.007372174423942927
0.005490159838570369
0.004019847735955752
0.002891651786993766
0.002042058644298516
0.0014147739278992592
0.0009611151625920037
0.0006399740771515422
0.00041752298793475747
0.0002667213553225961
0.00016663182501716904
0.00010157186182739899
6.016880620970485e-05
3.4413838234115485e-05
1.880539906916663e-05
9.640304171815211e-06
4.469499770399439e-06
1.702788251118913e-06
3.3112283126940483e-07
-2.651805995872045e-07
-4.4432516787788967e-07
-3.720538611498044e-07
-1.709845514564031e-08
-2.9199216962280933e-12
7.495245966128108e-09
5.965602458769841e-08
2.7882314467728657e-07
9.875733873911132e-07
2.916541667088642e-06
7.541675702035894e-06
1.7583978912210756e-05
3.7692764083241466e-05
7.531286823405704e-05
0.00014170905266301702
0.000253090566154273
0.00043175032120068145
0.000707111227708388
0.0011165610362803785
0.0017059590459216798
0.0025297136660678314
0.003650357468976612
0.005137582717336364
0.007066741046286225
0.009516851362033998
0.012568195840175172
0.016299611865493842
0.02078560581904753
0.02609342210196051
0.03228019822352369
0.03939032565988612
0.04745311860345373
0.056480871026102754
0.06646735897929851
0.07738682178181674
0.08919343430978607
0.10182126412895219
0.115184692341923
0.129179265986386
0.1436829424953184
0.15855768275017082
0.17365134809731944
0.18879985774963137
0.2038295656301101
0.2185598193247609
0.23280566783301154
0.24638068872674354
0.2590999086969281
0.2707827938680319
0.28125628731442887
0.29035787055860174
0.297938623118962
0.30386624907563325
0.3080280318564743
0.3103336678567406
0.3107179161895079
0.30914298636508786
0.3056005692692685
0.3001134016875737
0.2927362442030415
0.2835561510386366
0.2726919232369293
0.2602926675195338
0.24653543340592773
0.23162196662510284
0.21577468651693923
0.19923205137317596
0.18224349800901515
0.16506411450847625
0.14794912700117124
0.1311481746530462
0.11489925841321744
0.09942223872437106
0.08491187571299723
0.07153066292526626
0.05940205074017498
0.04860497423510371
0.039170748025112494
0.03108324989218827
0.024282856142705204
0.018673906187082964
0.01413475728666025
0.010528972982419268
0.007716041938919912
0.00556028685484781
0.003937185907450151
0.002736983845870201
0.0018660021003596508
0.0012463336600318862
0.0008146164678775351
0.0005204069000049542
0.0003244501518875347
0.00019696925748982608
0.00011601001911650576
6.586867404385194e-05
3.564840998227792e-05
1.8001111285137182e-05
8.096741364486263e-06
2.831575530874239e-06
2.547091441213362e-07
-8.263780750777554e-07
-1.0993768325055754e-06
-8.722895390513208e-07
-3.824217135801171e-08
9.026127118547173e-12
2.1797120319534562e-08
1.554906188074452e-07
6.743990268798335e-07
2.253272992855263e-06
6.337539818423504e-06
1.5705623154919623e-05
3.5250925595552125e-05
7.29824105887994e-05
0.00014120579481687867
0.00025780658007198656
0.0004475186294517908
0.0007430350419981936
0.001185807640606226
0.0018263907537346647
0.002724214124385366
0.003946715435522676
0.005567819235924741
0.007665808664835295
0.010320691817082056
0.013611209379854005
0.01761165970367982
0.022388729471244737
0.027998512686937597
0.034483879948315775
0.04187232746525379
0.050174395446346116
0.05938270279998008
0.06947160372002723
0.08039743497451902
0.09209929292318639
0.1045002577460733
0.11750896940118223
0.13102145498751858
0.14492310944328207
0.15909073948277425
0.1733945928524709
0.18770030987258735
0.20187075047512137
0.2157676664202219
0.22925320418711256
0.24219123855906918
0.2544485497403455
0.2658958677199157
0.27640881641974224
0.28586879688787914
0.2941638533817274
0.301189568549558
0.30685003387385984
0.31105893875548163
0.3137408155778152
0.3148324680913097
0.31428459565637873
0.31206360543966283
0.30815357803665266
0.30255831942758793
0.295303395300093
0.28643800627698984
0.2760365305701697
0.26419954218546693
0.25105411665300376
0.23675326850027484
0.22147442511716153
0.20541692035638742
0.188798567921123
0.17185142319800586
0.15481684101619747
0.13793988241224558
0.12146304190998396
0.10561921410231864
0.09062386389716709
0.07666655900865119
0.06390236025718131
0.052443960731184736
0.04235576786864149
0.03365116664580455
0.026293881071498996
0.020203684542815573
0.01526586059208057
0.011343042887979885
0.008287621015123425
0.00595292857155127
0.004201901668053528
0.002912622323680223
0.001980886090450096
0.0013204405232592406
0.0008617346464556428
0.0005499371937102972
0.0003427475984968767
0.00020827512997948015
0.00012308719652554605
7.044887228621472e-05
3.876328201763464e-05
2.023243585546206e-05
9.759415612938832e-06
4.097660721470725e-06
1.230774248176292e-06
-4.877707079634337e-08
-3.920201956377459e-07
-1.7846848178515938e-08
7.06496199158872e-11
5.842429471411106e-08
3.8056066460376497e-07
1.546751361823511e-06
4.907820818874343e-06
1.321739703577306e-05
3.154273493913439e-05
6.846457712775553e-05
0.00013753061115101046
0.00025887464584293987
0.00046086406050109525
0.0007816011665446347
0.0012700878510507282
0.001986871669188044
0.0030040253824044974
0.004404366434080328
0.0062798903397826315
0.008729463058840238
0.01185588276536648
0.01576247328794101
0.02054940470401876
0.026309949094447366
0.03312687215575125
0.04106913745499657
0.05018906432794626
0.0605200381082483
0.07207482767683124
0.08484452457331887
0.09879808328390562
0.11388241569142181
0.13002297470678584
0.1471247524557302
0.16507361600669979
0.18373790700380654
0.20297023906058118
0.2226094367751697
0.24248257134232734
0.2624070588381565
0.28219279752211807
0.30164432941009744
0.3205630186428763
0.33874924471766554
0.35600461250772336
0.37213418328115805
0.3869487317843583
0.40026703400657154
0.41191818858210555
0.42174397195925745
0.42960122346171387
0.4353642511316944
0.43892724267382877
0.44020665777263634
0.4391435683476288
0.43570590170230145
0.4298905277489681
0.42172511533762247
0.4112696642479514
0.3986175993840869
0.38389629422952004
0.36726687575420763
0.34892315912078686
0.3290895758427579
0.3080180012441496
0.2859834597055184
0.2632787839580797
0.2402084100841315
0.21708157409403142
0.19420520671350175
0.17187677919641414
0.15037724132733235
0.12996405790692672
0.11086426776016677
0.09326753888839717
0.0773194148656804
0.06311530343796547
0.05069612331125535
0.040046720829207634
0.031098036752506445
0.023733490663794054
0.017799255874526444
0.013117255541986408
0.009499103855398807
0.006759057042245343
0.004724376739689892
0.003242209550612637
0.002182899046952654
0.0014403112480435862
0.0009301094277184986
0.0005869391339380779
0.0003612777306585758
0.0002164110883549843
0.00012574586945065966
7.050780495849409e-05
3.781054552792801e-05
1.9068486357215177e-05
8.731710874379505e-06
3.3213056808545e-06
7.38008883818128e-07
-1.8891441080561547e-07
-8.56043819924081e-09
2.910845809226514e-10
1.4582820130769707e-07
8.78186646544698e-07
3.366228827695679e-06
1.0182911631129711e-05
2.6325978094942048e-05
6.0602729849957726e-05
0.00012734470489216405
0.0002483490988998282
0.0004548765753963802
0.0007894836303842188
0.0013074434735801147
0.002077519157549836
0.003181896846431295
0.004715159895597868
0.006782275266251118
0.0094956596722755
0.012971480706498974
0.01732541718177895
0.022668145908802048
0.029100836293493422
0.036710920758049694
0.045568372631662114
0.05572267047000451
0.06720056622296705
0.08000471146347422
0.09411313708031534
0.10947953187863928
0.12603422710689205
0.1436857680572892
0.16232294020680849
0.1818171145113749
0.20202478246008787
0.2227901641044546
0.24394778929083094
0.26532497175884456
0.28674411598294547
0.308024816376466
0.32898572687925354
0.34944619548370087
0.36922767267040524
0.38815491498050986
0.4060570151379502
0.4227682984097523
0.43812913142225657
0.451986694558255
0.4641957723794076
0.474619618162145
0.48313094836582415
0.48961312026772275
0.4939615405365507
0.4960853434717225
0.49590936421690784
0.493376413658856
0.4884498372378691
0.48111630905705655
0.47138877545295077
0.45930941927116276
0.44495246930976196
0.42842663230116523
0.4098768833241595
0.3894853234066975
0.3674708115175518
0.3440871140471683
0.31961939702723935
0.2943790149553807
0.2686967114755632
0.24291451161355448
0.2173767118496894
0.19242042423302325
0.16836608661267632
0.14550823392829507
0.1241066982074029
0.10437835310839731
0.0864896109049983
0.07055012099173628
0.05660842502506497
0.044650536508605246
0.03460236189817914
0.026336470141380127
0.019682993401118995
0.014443597977105269
0.010406778189034304
0.007362442118755827
0.005113981364018567
0.00348666580641926
0.002332050273796962
0.001528849945529357
0.0009812303480266186
0.0006155962186486558
0.00037681513052173547
0.00022451574194075566
0.00012979674712919106
7.245872159433225e-05
3.874922794088987e-05
1.9567949905364756e-05
9.074809148256134e-06
3.648757519130204e-06
1.12414356085382e-06
4.8099667353668605e-08
9.479947801827349e-10
3.416597749249331e-07
1.920227138866176e-06
6.9792006643461314e-06
2.0200549531488565e-05
5.026849212815797e-05
0.0001118630068614158
0.00022797164950614734
0.00043231911035988054
0.0007716438443034496
0.0013075158486957064
0.002117398917431688
0.003294715393476847
0.004947763824110359
0.007197455586409785
0.010173957713725111
0.014012438273940636
0.018848193528719172
0.02481148391339699
0.032022415892726606
0.040586181867764165
0.05058891771350609
0.062094366881336516
0.07514146162827151
0.08974285527173226
0.10588437188714406
0.12352528652987961
0.14259931226050693
0.1630161500929726
0.18466345282586463
0.2074090607745583
0.2311033833693968
0.25558182205046387
0.28066715382585
0.30617181877306454
0.33190007681177874
0.35765001807446367
0.3832154265487165
0.4083875082358693
0.43295650308980815
0.45671320492171924
0.4794504158564822
0.5009643624165809
0.521056099474309
0.5395329266660214
0.5562098398179629
0.5709110377900896
0.5834715030731201
0.5937386725064984
0.6015742125011978
0.60685591086359
0.6094796942533025
0.6093617758020827
0.606440930612313
0.6006808867180434
0.5920728045038568
0.5806377974333921
0.5664294203545358
0.5495360182680914
0.5300827889246437
0.5082333692842622
0.48419071356999305
0.45819699743618014
0.43053227008341244
0.4015115975274444
0.3714805079984665
0.34080867022694994
0.3098818996932185
0.279092771945134
0.24883028540853694
0.21946911350314485
0.19135898608782662
0.16481464611651261
0.14010668578713706
0.11745345750111229
0.0970142575712377
0.07888412618640878
0.06309084451823964
0.04959490708122054
0.038293240681486894
0.02902711559360345
0.021594058154612402
0.015762782238028235
0.011289465101369332
0.007933351613927166
0.005469815390813286
0.003699594671972282
0.0024537563157377928
0.0015947559090513988
0.0010145312670468874
0.000630787557404382
0.0003825380616720077
0.0002256795005701171
0.0001290493214717402
7.114007501883744e-05
3.747608401964569e-05
1.858017194467018e-05
8.43216884601738e-06
3.2605998478508295e-06
1.407100825156541e-07
2.6797715753649366e-09
7.559073377984057e-07
3.994006862394484e-06
1.382466243942847e-05
3.840076046662171e-05
9.218377315228927e-05
0.00019864475739430265
0.0003931697680125037
0.0007258411638733663
0.0012637130819825862
0.0020922040869747706
0.0033152951408104473
0.005054336918871684
0.00744541807433066
0.010635401479875933
0.014776875211451511
0.020022370187356763
0.026518255466274374
0.034398732095680604
0.04378031148434296
0.05475709451070752
0.0673970759663163
0.08173959899510645
0.09779398794974759
0.1155393047370622
0.13492510903890198
0.15587305918329172
0.1782791674695755
0.2020165189145978
0.2269382719448951
0.2528807793041232
0.27966669330352806
0.3071079479911627
0.33500853909555045
0.36316704878428013
0.3913788852164207
0.41943822605949943
0.44713967058044407
0.474279616932064
0.5006573903594073
0.5260761548352201
0.5503436456814149
0.5732727645561441
0.5946820811936891
0.6143962887659767
0.6322466618518459
0.6480715677836433
0.6617170834884996
0.6730377706153944
0.6818976613588569
0.6881715054286192
0.6917463243946406
0.6925233123394047
0.6904201104360693
0.6853734667352342
0.6773422700930559
0.6663109179578255
0.6522929411139174
0.6353347644682547
0.6155194324109496
0.5929700723013496
0.5678528141290468
0.5403788347107511
0.5108051602222692
0.47943385376018544
0.4466092491479875
0.4127129812277716
0.3781567126960087
0.343372661334439
0.3088022643208549
0.2748835355264336
0.24203782613897598
0.21065674691864
0.18108994100715786
0.15363424315862834
0.1285245975893167
0.10592701580075473
0.08593388713564641
0.06856208535341979
0.05375444107619297
0.041385127044144536
0.03126921525119002
0.023176100251642927
0.01684576539982871
0.012006224973401503
0.008390142678477795
0.0057487488402720435
0.0038617359084422336
0.0025426310846354437
0.0016399731224887497
0.0010352304470452934
0.0006386698215129463
0.00038433069397808626
0.00022498955609818474
0.0001276531781158997
6.981401350878959e-05
3.6490349427316784e-05
1.7942843363748516e-05
7.768315395649904e-06
3.345909673111822e-07
6.835874839854043e-09
1.586997579623929e-06
7.929182450412391e-06
2.6233584382013582e-05
7.011302163038945e-05
0.00016268845663165227
0.0003400197770266955
0.0006544786317182709
0.0011775942222950703
0.0020018981076532164
0.0032413691444635063
0.005030223027098118
0.007519977492389988
0.010874922125619375
0.015266299089611558
0.020865632650328855
0.027837716045003347
0.03633377048528634
0.04648523963453868
0.058398587862156286
0.07215134985563253
0.0877895509540427
0.1053264975868957
0.12474283701626487
0.14598771191505652
0.16898079030308044
0.19361493338571276
0.21975926867225976
0.24726245775161124
0.2759559812592306
0.3056573022917194
0.33617280915311876
0.3673004753638918
0.39883220704534794
0.4305558739095957
0.4622570398195053
0.4937204225620137
0.5247311208467978
0.5550756505681631
0.584542833086885
0.6129245766982142
0.640016589444975
0.6656190577653918
0.6895373217426073
0.711582574414525
0.7315726100486423
0.749332644710089
0.7646962319638715
0.77750629714844
0.7876163151944378
0.7948916591278067
0.799211148665212
0.8004688298971944
0.7985760168757071
0.7934636225774424
0.7850847985154156
0.7734178873401822
0.7584696692224581
0.7402788490336816
0.7189196864086207
0.6945056149389999
0.6671926320631167
0.6371821722345499
0.6047231104171317
0.5701124922851037
0.5336945666471818
0.49585772156740987
0.45702901406811614
0.4176661428362165
0.3782469388297042
0.3392567155080665
0.30117408420928904
0.2644560450840255
0.229523260035126
0.19674637905352277
0.16643414656866032
0.1388238236019632
0.11407430618473459
0.09226225904815023
0.07338161252748023
0.0573468123816805
0.04400014418328464
0.03312317186033116
0.024451816386918155
0.01769395910393818
0.012547884041767095
0.008719590386468915
0.005937144458360134
0.003960788847613793
0.0025883280746323485
0.0016561292599295567
0.0010366934267172444
0.0006340446135703672
0.00037815036169284934
0.00021932604747370543
0.00012322250454833303
6.666244713569158e-05
3.4303569981414165e-05
1.5664912552742323e-05
6.732429165115272e-07
1.6067969630434095e-08
3.1744335375988337e-06
1.506937491434695e-05
4.780326933072234e-05
0.000123207055182046
0.00027682113534746263
0.0005619419876319037
0.0010531563458224702
0.0018487689767766014
0.0030716110578765813
0.0048678892499277775
0.007403968696823429
0.01086123395105667
0.015429397614996876
0.02129879325251024
0.028652276886784248
0.03765736588301469
0.04845917482700974
0.06117458450642026
0.07588792629516934
0.09264830400726902
0.11146852868182318
0.1323255228747665
0.1551619673316863
0.17988891580257613
0.20638908990601393
0.23452057897012393
0.26412070186822745
0.2950098311810319
0.3269950276379448
0.3598733792913765
0.39343498151949036
0.4274655286016235
0.4617485144870898
0.4960670597198615
0.5302053941949326
0.5639500327701796
0.5970906841111957
0.6294209338074791
0.6607387418891062
0.6908467932846691
0.7195527381438627
0.7466693577288838
0.7720146909976254
0.7954121571502966
0.8166907102728297
0.8356850636901422
0.8522360235887577
0.8661909736812079
0.8774045549105494
0.885739586105354
0.8910682726611718
0.8932737501623046
0.8922520075887582
0.8879142293577281
0.8801895856432235
0.8690284846714994
0.8544062773137915
0.8363273716191354
0.8148296715915653
0.7899891999038164
0.7619246990468446
0.7308019323256918
0.6968373305579814
0.6603005611988321
0.62151554666117
0.5808594441181876
0.5387591381902928
0.49568490688656086
0.45214110854129386
0.4086539971293727
0.3657570788610858
0.32397472722941606
0.2838050169506817
0.24570286424228885
0.21006454251853954
0.177214492521285
0.14739512114325581
0.12076006281458461
0.0973712246296841
0.07719986198981238
0.060131879371425535
0.04597742151573321
0.03448452645708435
0.025356139022203423
0.018269222301000716
0.0128942294983745
0.008912997713181305
0.006033314084071054
0.003998967581046559
0.0025948894165465364
0.0016477820170269829
0.0010232358033454491
0.0006206172967487129
0.00036697884076369224
0.00021097777048365718
0.00011741765463247491
6.257731162553426e-05
2.9661152568320224e-05
1.2704608022602893e-06
3.525726236250257e-08
6.070558148061253e-06
2.7488574597061722e-05
8.383193428889719e-05
0.0002087803440329773
0.0004549295913313918
0.0008981489782290542
0.0016407608286276812
0.00281288312249592
0.00457148020345527
0.007096954771607114
0.010587431231952276
0.015251168695531572
0.021297755343144802
0.028928847269734544
0.03832921853685367
0.04965879804226605
0.06304620909320524
0.0785841313236404
0.09632660325417156
0.11628820319652361
0.13844490385371616
0.16273630037427814
0.18906886329533895
0.21731986124751326
0.24734162431948414
0.27896586697358094
0.31200784908246254
0.34627021627179005
0.3815464197092405
0.41762366647437943
0.4542853924645925
0.49131327991403784
0.5284888617074808
0.5655947661833212
0.6024156608116348
0.6387389528240649
0.6743553012324588
0.7090589891107766
0.7426481986360723
0.7749252250015338
0.8056966594844571
0.834773567029004
0.8619716798954914
0.887111626346242
0.9100192120384482
0.9305257718025006
0.9484686108078321
0.9636915567411825
0.9760456484830439
0.9853899917201201
0.9915928176869573
0.9945327872897325
0.9941005884416234
0.9902008783804481
0.9827546234735877
0.9717018845368368
0.9570050836210292
0.9386527659562222
0.9166638357706174
0.8910921950327514
0.8620316489508136
0.829620862339478
0.7940480604925979
0.7555550742922467
0.7144402434490015
0.6710596298695981
0.6258259746187881
0.5792048774619638
0.5317078051247829
0.4838817513512008
0.4362956702132179
0.3895241537114446
0.34412917358037626
0.30064099042043646
0.2595394902950365
0.22123720529653346
0.18606511849924476
0.15426209728212353
0.12596851881860208
0.10122441374676248
0.07997227987901569
0.06206456982973352
0.047275658106020114
0.03531777696484802
0.025859970518837146
0.018548636161800226
0.013027853226390789
0.00895759944081175
0.00602821621699664
0.003970075994972291
0.002558185486662208
0.0016122235281709047
0.000993074646735247
0.0005971743356975131
0.0003499266007769297
0.00019914941855609208
0.00010893844543234005
5.297156485969195e-05
2.2607532746640176e-06
7.286915600883337e-08
1.1131596977811535e-05
4.824220852622911e-05
0.0001417720531818332
0.00034177655174108144
0.0007232817604928072
0.0013904133374807771
0.002478490108246678
0.004153469125312068
0.0066084801398267005
0.010057585431130351
0.01472726930896729
0.020846437325107315
0.02863585062702493
0.03829792733505954
0.05000772741975765
0.06390573504853672
0.08009280530431333
0.09862739177804257
0.11952495103406693
0.14275925102660708
0.16826520273808127
0.19594278660989653
0.2256616491073881
0.25726598703309483
0.29057940368389445
0.3254094983356404
0.3615520279884857
0.398794550090351
0.43691951248822414
0.4757068002801242
0.5149357787907445
0.5543868892043992
0.5938428608511847
0.6330896043887433
0.6719168456567306
0.7101185529526084
0.7474932025702592
0.7838439198605917
0.8189785265789754
0.8527095202762704
0.8848540080895783
0.9152336154262561
0.9436743895277759
0.9700067185160611
0.9940652880295927
1.0156890997460744
1.0347215788092228
1.0510108003291911
1.064409868654078
1.0747774869762052
1.0819787589767933
1.085886268469752
1.0863814870446264
1.0833565629140984
1.0767165455367416
1.0663820986176675
1.0522927467557133
1.0344106857639945
1.0127251606495806
0.9872573754935505
0.958065843649663
0.9252520136921427
0.8889659175328307
0.8494114865023802
0.8068510775956657
0.7616086590639505
0.7140710405061843
0.6646865196111376
0.6139603784191562
0.5624468146606864
0.5107371453320875
0.4594444585852449
0.4091852812539535
0.36055921564366444
0.31412781073241874
0.2703941053349899
0.22978427675573734
0.19263265368320187
0.15917105618936525
0.1295230837919676
0.10370365267945605
0.0816238148588057
0.06310065361710002
0.047871786008417606
0.03561366669193599
0.025962483348467954
0.01853603991141518
0.01295477041924221
0.008860041148401176
0.00592824282091463
0.0038798034329456154
0.002483022925085334
0.001553354056472436
0.0009492620621512864
0.0005659929176750309
0.00032842885092407536
0.00018356423690012996
9.103941709593046e-05
3.869831772364781e-06
1.4279525743438516e-07
1.9624309318108684e-05
8.16307021494732e-05
0.0002316395456423003
0.0005414099551162703
0.0011142113856756292
0.002087939709714259
0.0036352212556484405
0.005960097565756782
0.009291380225461797
0.013873236565034069
0.01995392692446923
0.027773809263821028
0.03755374324419862
0.049484884728999166
0.0637206084003353
0.08037098687531673
0.0994999433771912
0.12112492462599776
0.14521873837193705
0.1717130768068394
0.20050320003310237
0.23145327024379728
0.2644018895433769
0.2991674835859284
0.33555327247236577
0.37335166631658034
0.41234800656136295
0.45232364063823766
0.4930583655080309
0.5343323060872107
0.5759273102069287
0.6176279459346369
0.6592221832622279
0.7005018334391476
0.7412628081411337
0.7813052491018543
0.8204335680589079
0.8584564276088883
0.895186686147439
0.9304413245203661
0.9640413681851328
0.9958118163475748
1.0255815884498332
1.0531834983262145
1.0784542671579807
1.1012345879611922
1.1213692567216456
1.1387073884957108
1.1531027409132082
1.1644141726408856
1.1725062705433198
1.1772501864562637
1.1785247324208796
1.1762177913809566
1.1702281077815218
1.1604675277727003
1.1468637597602596
1.1293637201651519
1.1079375132153346
1.0825830638356524
1.05333137579708
1.0202523206278749
0.9834607755177408
0.9431228225681355
0.8994616032976317
0.8527623023862531
0.8033756298872294
0.7517191033521075
0.6982754255875676
0.6435873346333423
0.5882484881188085
0.5328902386772069
0.47816454384734675
0.4247236912028858
0.3731979432561615
0.32417254177998284
0.27816569018015846
0.2356091171518645
0.1968326207728787
0.1620536490162145
0.13137256559565752
0.10477384936717686
0.08213311801371918
0.06322954521935116
0.04776291942551017
0.03537424339673415
0.025668412668421323
0.018237210344540296
0.012680724703920041
0.008625430843504664
0.005737608759734345
0.0037314349618331943
0.0023718393814245106
0.0014728867832289475
0.000892861764862003
0.0005272586922557145
0.0003001389803924129
0.00015120029045253663
6.399765114375526e-06
2.666763251962968e-07
3.333944092995744e-05
0.00013343953165285383
0.0003662934265318738
0.000831244887231681
0.0016655819536666647
0.0030456449571178456
0.005183957564139468
0.008322371566050113
0.012721818879512407
0.01864973761293691
0.026366506730710317
0.036112262301593305
0.048095302349117866
0.06248297538404441
0.07939556316988076
0.09890328205993408
0.12102619526241977
0.14573658525882693
0.17296319410157793
0.20259669401927075
0.23449578384725184
0.26849339432777025
0.30440260258900453
0.34202198151500374
0.38114022690137767
0.42154000379267464
0.4630010282107546
0.5053024509720723
0.5482246388485306
0.5915504590739221
0.6350661709040748
0.6785620172272282
0.7218325940777981
0.7646770594421063
0.8068992271481327
0.8483075782522246
0.888715211831868
0.9279397496060641
0.9658032041242434
1.0021318179767602
1.0367558810793003
1.0695095340563052
1.1002305676292223
1.1287602303205408
1.1549430594319539
1.1786267529707848
1.199662102919408
1.217903013008251
1.2332066270988438
1.2454335976179243
1.2544485274559012
1.2601206235913778
1.262324606576862
1.2609419268721855
1.2558623464627154
1.246985951379115
1.23422566612407
1.2175103423079472
1.1967884878692363
1.1720326862412274
1.1432447224272657
1.1104613810150918
1.073760806576823
1.0332692187448742
0.9891676551635524
0.9416982830532562
0.8911696878369726
0.8379604350460204
0.7825201348632924
0.7253672452798213
0.6670829560284187
0.608300718481028
0.5496913271087784
0.4919438928986456
0.435743528957449
0.3817470221295374
0.3305581116468779
0.282704167494162
0.238616020114588
0.1986124473864255
0.16289042612667837
0.1315217804120936
0.10445638067818153
0.08153160945835976
0.06248741746838979
0.046985929737947234
0.03463421459093059
0.025008522453396947
0.01767810309882577
0.012226705838275719
0.008270121815756948
0.005468641459214454
0.0035339919212092744
0.0022310404847875383
0.0013751125306228447
0.0008259174065826991
0.00047813899226700144
0.00024413545631052087
1.0286634979059555e-05
4.765961427459254e-07
5.469743645300695e-05
0.00021110762677349843
0.0005614887768116051
0.0012387863473415496
0.002419413213775667
0.004321233685246224
0.007196799780721255
0.011322421346842514
0.016984277647696312
0.02446315167749831
0.03401944948476859
0.045879981573797024
0.06022760564908344
0.07719435505555013
0.09685819835993995
0.11924316594522791
0.14432228405963884
0.17202259110305865
0.20223146661472058
0.23480355604261913
0.2695676920780526
0.30633336403729344
0.3448964431153367
0.38504401331992905
0.42655827344593583
0.4692195595926765
0.512808590949064
0.5571080679545479
0.6019037574216712
0.6469851901749218
0.6921460791196068
0.7371845442549251
0.7819032095755217
0.8261092174152085
0.8696141898563053
0.9122341548092983
0.9537894461310132
0.9941045822117743
1.03300812516822
1.0703325224374185
1.1059139335422976
1.1395920465560212
1.1712098909311164
1.2006136556076559
1.2276525235288824