# vtk DataFile Version 4.1 
COMMENT
ASCII
DATASET STRUCTURED_POINTS 
DIMENSIONS 100 100 1 
ORIGIN 0 0 0
SPACING 0.12693303650867893 0.12693303650867893 0 
POINT_DATA 10000
SCALARS U double 1
LOOKUP_TABLE default
0.0
0.0
0.0
0.0
0.0
0.0
0.0
0.0
0.0
0.0
0.0
0.0
0.0
0.0
0.0
0.0
0.0
0.0
0.0
0.0
0.0
0.0
0.0
0.0
0.0
0.0
0.0
0.0
0.0
0.0
0.0
0.0
0.0
0.0
0.0
0.0
0.0
0.0
0.0
0.0
0.0
0.0
0.0
0.0
0.0
0.0
0.0
0.0
0.0
0.0
0.0
0.0
0.0
0.0
0.0
0.0
0.0
0.0
0.0
0.0
0.0
0.0
0.0
0.0
0.0
0.0
0.0
0.0
0.0
0.0
0.0
0.0
0.0
0.0
0.0
0.0
0.0
0.0
0.0
0.0
0.0
0.0
0.0
0.0
0.0
0.0
0.0
0.0
0.0
0.0
0.0
0.0
0.0
0.0
0.0
0.0
0.0
0.0
0.0
0.0
-1.6873857795717734e-13
8.276380161175157e-11
8.964133824741633e-10
4.989855898248275e-09
1.9945028542445263e-08
6.451374239466365e-08
1.7916900147592834e-07
4.423172483913841e-07
9.927701757161354e-07
2.0578752646817733e-06
3.985022499431394e-06
7.272299565452588e-06
1.259220392675321e-05
2.080094685334806e-05
3.292539099845704e-05
5.012033096821378e-05
7.359076019839419e-05
0.00010447686148258618
0.00014370340472980668
0.00019179957169683273
0.0002486994124019801
0.0003135366383027411
0.000384449828192671
0.000458415068501933
0.0005311224564244308
0.0005969108321647734
0.0006487718051322629
0.000678429943336123
0.0006765013130514668
0.0006327278029103135
0.0005362802204513274
0.00037611931441767116
0.00014140086416868227
-0.00017809109927711413
-0.000591499998767973
-0.0011064586292099602
-0.001728674025139511
-0.0024615508414502613
-0.0033058671831235967
-0.004259514901792993
-0.0053173143152973066
-0.006470911218541949
-0.007708762022135617
-0.009016210923441835
-0.010375661189088529
-0.01176684087975955
-0.013167161618168433
-0.014552167206924314
-0.01589606694719593
-0.017172346290374115
-0.018354444881353953
-0.019416489056600785
-0.02033406241864044
-0.021084994258752175
-0.021650141460333023
-0.022014135304481437
-0.022166060648554746
-0.022100031714180395
-0.021815626788665606
-0.021318144219158317
-0.020618644957604956
-0.019733753404805994
-0.018685199078829633
-0.017499097004842982
-0.016204984322396625
-0.01483465307479122
-0.013420841953722241
-0.01199586934639975
-0.010590302328876608
-0.0092317577748461
-0.00794392077529218
-0.006745843078163878
-0.005651554126702266
-0.004669985333297167
-0.0038051804543622935
-0.0030567454440658783
-0.002420480936966113
-0.0018891375464448615
-0.0014532350693963725
-0.001101888791008184
-0.0008235889283810584
-0.0006068845339256672
-0.0004409332082104174
-0.000315893625587081
-0.00022315736689177204
-0.00015543580542511003
-0.00010673221250948404
-7.223582734605927e-05
-4.81731670441149e-05
-3.164469117423995e-05
-2.0465604644053824e-05
-1.3021145268633908e-05
-8.140752792344946e-06
-4.9921294099044485e-06
-2.994567546804908e-06
-1.7501035249811103e-06
-9.903902004727317e-07
-5.358658633028822e-07
-2.581120684648511e-07
-1.1260638200903653e-08
-3.5478224864353463e-13
2.952750899344313e-10
2.6088924274507856e-09
1.2885733450147752e-08
4.7164750721014845e-08
1.4202463055727363e-07
3.7097167802178806e-07
8.67409647335685e-07
1.8535167873560127e-06
3.672570232453125e-06
6.820295483348757e-06
1.1969094696833921e-05
1.9977968797779072e-05
3.18809644629266e-05
4.88482430503514e-05
7.211634747200454e-05
0.00010288766042842377
0.0001422029397352758
0.00019079461851240296
0.0002489317083192834
0.00031626918312444637
0.0003917153681432927
0.00047333003785766405
0.0005582637760936239
0.0006427459700334682
0.0007221250090785302
0.0007909602866169042
0.0008431618797805427
0.0008721706538552294
0.000871169239891259
0.00083331298151702
0.0007519695409457123
0.0006209563007345687
0.0004347658352163951
0.00018877135352200774
-0.00012059407623354467
-0.0004956887239026287
-0.0009375461202953766
-0.001445792338156289
-0.0020185959073570144
-0.0026526486551869274
-0.0033431751656035047
-0.0040839683315381506
-0.0048674485981845235
-0.005684744912114488
-0.0065257960380167325
-0.007379471708825587
-0.008233713953970446
-0.009075699813080365
-0.009892027387300575
-0.010668927695736736
-0.011392504969999306
-0.0120490077103388
-0.012625131920025961
-0.013108356320569933
-0.013487306943352737
-0.013752145244160324
-0.013894969798003481
-0.013910216778055932
-0.013795038993419887
-0.013549637626984651
-0.013177515629385142
-0.012685618025580058
-0.01208432364166256
-0.011387256729139532
-0.010610897327674383
-0.009773986851856499
-0.00889674954842828
-0.007999978048305875
-0.007104056773845165
-0.006228013666390507
-0.005388692538655132
-0.0046001225998060285
-0.0038731308027072447
-0.0032152043071929574
-0.0026305751340809985
-0.0021204764727038904
-0.001683514475872222
-0.0013161081726985376
-0.001012965332577028
-0.0007675744486581812
-0.0005726966939808911
-0.0004208371218703402
-0.0003046672280976984
-0.00021736850448061357
-0.00015287322100940534
-0.00010599359516614918
-7.244850509291706e-05
-4.8811414292536926e-05
-3.240974662715555e-05
-2.120403044620037e-05
-1.3667543877714847e-05
-8.678067534878401e-06
-5.425965850801988e-06
-3.338507455302623e-06
-2.018660119534863e-06
-1.1961691740101285e-06
-6.875074702678968e-07
-3.53827354125513e-07
-1.565720188525804e-08
-3.8601390201221006e-13
9.900165018610304e-10
7.72157410796374e-09
3.531356532024059e-08
1.2219056635405032e-07
3.519392003192477e-07
8.860538221676663e-07
2.0079152118221637e-06
4.175804338732204e-06
8.07961343406902e-06
1.4692743404717989e-05
2.5308162722117098e-05
4.154641136195231e-05
6.532393838469278e-05
9.87727307553054e-05
0.00014410653687328868
0.0002034346002479865
0.0002785299598139514
0.00037056521738019837
0.00047983344829160277
0.0006054750430899583
0.0007452323740195405
0.0008952532187934431
0.0010499610413156623
0.0012020059210305146
0.0013423046566305428
0.0014601729025257378
0.0015435466507376558
0.0015792853817727128
0.0015535450903406494
0.0014522063292307973
0.001261340466891591
0.000967696476445989
0.000559190643231905
2.53824222265469e-05
-0.0006420788992244616
-0.0014490502698155823
-0.002398545197615074
-0.0034904477872238905
-0.004721297951502966
-0.00608415341084397
-0.007568532444880606
-0.00916043993089122
-0.010842477979856931
-0.012594041431344157
-0.014391597538309302
-0.01620904829251141
-0.018018172927534146
-0.019789147097220176
-0.02149113396537796
-0.02309294086162025
-0.024563733171291104
-0.02587379466954879
-0.026995320554007548
-0.027903226008471036
-0.0285759493526021
-0.02899622490254133
-0.02915179688225062
-0.029036042451273412
-0.028648469540747633
-0.027995054069966073
-0.027088381535097013
-0.025947560168251855
-0.024597877203059924
-0.0230701768972377
-0.021399949959059507
-0.019626140379202323
-0.017789698678442354
-0.015931940300792126
-0.01409280183231223
-0.012309120025851508
-0.010613080365529376
-0.009030983400385575
-0.007582451520632128
-0.006280146297010776
-0.005129995954840732
-0.004131860508040572
-0.003280507312642407
-0.0025667462289528185
-0.0019785844974991263
-0.0015022981957588004
-0.0011233632949315048
-0.0008272282040256711
-0.0005999315288682684
-0.0004285738181618424
-0.0003016482243631515
-0.0002092320481437473
-0.0001430450153443507
-9.639052082630404e-05
-6.400788612862181e-05
-4.187099117374042e-05
-2.6968229573715578e-05
-1.7091350843611392e-05
-1.064993739746782e-05
-6.518014922975039e-06
-3.912103098534747e-06
-2.2960465530715776e-06
-1.3044789219738942e-06
-6.632179670907651e-07
-2.913815056623846e-08
1.2466979564432965e-12
3.0116209904943153e-09
2.1125396577169772e-08
8.989156117846185e-08
2.9408489835024604e-07
8.084615577101979e-07
1.954909680932428e-06
4.27402884582547e-06
8.60475473994286e-06
1.616101771939665e-05
2.8590634661732754e-05
4.7999713447946153e-05
7.692654875467282e-05
0.00011825257681415073
0.00017504414189945086
0.0002503268005703494
0.00034680249142449333
0.0004665278463638681
0.0006105780497035679
0.000778724113939758
0.0009691518202020204
0.0011782479155051657
0.0014004739259801866
0.0016283408895572924
0.001852490339663742
0.0020618788979502403
0.0022440566601964625
0.002385523789766787
0.002472145733586605
0.002489605373042525
0.0024238701322853913
0.002261653343304884
0.0019908516609892586
0.0016009436349485396
0.0010833382823789018
0.0004316663103830086
-0.00035798978793677894
-0.0012869274124904238
-0.0023537154270175946
-0.0035541418772320347
-0.004881212939640478
-0.006325197673639559
-0.00787371323968402
-0.009511845855007296
-0.011222303789512013
-0.012985600053579717
-0.014780263985866205
-0.016583082594707546
-0.018369374113494662
-0.020113297655887433
-0.021788203940199008
-0.0233670326122446
-0.024822761532541076
-0.02612891229812178
-0.027260114043451435
-0.028192724054421407
-0.02890549886733455
-0.02938030338228352
-0.029602838349276867
-0.029563358834535647
-0.029257348559786574
-0.028686108034488296
-0.027857208862992158
-0.02678476312548921
-0.025489455908648852
-0.02399829171267855
-0.02234401292461091
-0.020564162864875966
-0.01869978952013136
-0.016793820711234874
-0.01488918636359339
-0.01302681364671948
-0.011243665799104902
-0.009571021586002154
-0.008033186221036067
-0.0066467792300940525
-0.005420664455770036
-0.004356488980880535
-0.0034497061994979337
-0.002690898070294411
-0.002067197132330436
-0.0015636386853834056
-0.0011643315301030853
-0.0008533987731166618
-0.0006156886539289193
-0.00043728016620527335
-0.0003058125615221987
-0.0002106621942613496
-0.00014298530484886914
-9.564660702058463e-05
-6.305976077385391e-05
-4.0971979042667065e-05
-2.6226444120521486e-05
-1.653132814593256e-05
-1.0254815610010943e-05
-6.2549949571485514e-06
-3.7442605926584953e-06
-2.178220679524571e-06
-1.1336141795933475e-06
-4.9710130647595104e-08
1.0245311660869363e-11
8.471250514265857e-09
5.4380467430937986e-08
2.172185461325043e-07
6.758712771072968e-07
1.7814371535158039e-06
4.153126232420903e-06
8.790554666818266e-06
1.7188979414122065e-05
3.143801764561727e-05
5.428071303327484e-05
8.910965638839445e-05
0.000139880786487439
0.0002109332175771152
0.0003067139272398758
0.0004314178181606073
0.0005885647599876316
0.0007805440861221344
0.0010081624574904647
0.0012702324040018839
0.001563236245103202
0.0018810940603996636
0.002215055908171533
0.002553728742129966
0.002883238617234136
0.003187519802358244
0.0034487150641158136
0.0036476660778626446
0.0037644697872706453
0.0037790754523346
0.003671897797116355
0.003424423688535449
0.0030197927064779255
0.002443335383857979
0.0016830564415101863
0.000730053734261584
-0.00042113333643626266
-0.0017722496189385905
-0.003321125843000086
-0.005061556179143355
-0.006983250760437166
-0.009071861555387646
-0.011309079671837172
-0.013672802121872635
-0.016137366210204743
-0.01867384995038551
-0.02125043719485545
-0.023832846417290072
-0.026384822237414514
-0.02886868875076489
-0.031245963429168803
-0.033478029688522565
-0.03552686506120769
-0.03735582013385039
-0.03893044089124537
-0.040219323741190416
-0.04119498823654974
-0.04183474741726297
-0.042121549980192415
-0.042044762564591595
-0.04160085494487461
-0.04079394663970216
-0.03963617118991409
-0.03814781476032043
-0.03635718904165443
-0.03430020450387482
-0.03201961851061535
-0.029563943590311653
-0.02698601515074405
-0.024341237217977204
-0.021685552107081355
-0.019073216914518697
-0.016554514374201117
-0.014173570269173616
-0.011966480887871325
-0.009959956206352394
-0.008170645639706067
-0.006605232103265994
-0.005261270149292956
-0.004128631114656315
-0.0031913328512384537
-0.0024294967912341235
-0.0018211972715668748
-0.0013440346256740725
-0.0009763489305218173
-0.0006980681524798874
-0.0004912346072593758
-0.00034027330617937795
-0.00023206317548883483
-0.0001558604830320677
-0.00010311365117761565
-6.720398203105757e-05
-4.3145799524549175e-05
-2.7277936442723542e-05
-1.6973422250573867e-05
-1.0385422012539144e-05
-6.236082379475077e-06
-3.6384512227100117e-06
-1.8968780795046703e-06
-8.293727250762437e-08
4.4413485975322004e-11
2.2244163668425366e-08
1.3223757825182062e-07
4.988872654111417e-07
1.4818651634026935e-06
3.7542176782617725e-06
8.453042487616688e-06
1.7342369546214628e-05
3.2963210312582375e-05
5.8739432250192306e-05
9.90066085305043e-05
0.00015893531289278665
0.0002443302914095999
0.00036130117957207787
0.0005158167119879988
0.0007131700892817493
0.0009573958826111398
0.0012506867419493028
0.0015928602859191245
0.0019809228974311216
0.002408768576012851
0.002867038940756353
0.0033431566603648885
0.0038215307231314046
0.004283919517627716
0.004709927743322378
0.005077606317218467
0.00536412085136702
0.005546453738796094
0.005602106927057392
0.005509776450029083
0.00524997504952068
0.004805585099623044
0.004162329987815362
0.003309157666388945
0.002238534953934705
0.000946655150329619
-0.0005664354538251889
-0.0022967845417944392
-0.004236545435787545
-0.006374044359810848
-0.008693894566465897
-0.011177149540692941
-0.01380148890180369
-0.01654143238692863
-0.019368579315188025
-0.022251873109806305
-0.025157892703226072
-0.028051174869340376
-0.03089457360231727
-0.033649664451870946
-0.03627720305311676
-0.03873764773526389
-0.04099175579242929
-0.04300126144902181
-0.04472964043153055
-0.046142961070973536
-0.04721081479528428
-0.04790730969469158
-0.04821209980774162
-0.048111410527544356
-0.04759900817679078
-0.0466770508938893
-0.045356750326001456
-0.04365877098746405
-0.041613297768186126
-0.039259712357896534
-0.036645835737591906
-0.03382671525842306
-0.03086296026109565
-0.02781865974400441
-0.024758950427890402
-0.021747344851416685
-0.018842975704816554
-0.016097958403343528
-0.013555106878509979
-0.011246241846572013
-0.009191292430289032
-0.007398306445922695
-0.0058643625481109305
-0.004577244544450102
-0.003517628327957168
-0.002661474617977896
-0.001982329683727547
-0.0014533036365108596
-0.0010485961801944526
-0.0007445407596603542
-0.0005202139429647461
-0.0003576963291008826
-0.00024207821075961894
-0.00016129072490407144
-0.00010582520256468875
-6.838857793372102e-05
-4.353304187179061e-05
-2.7291244914198463e-05
-1.6840865746443805e-05
-1.0211150195004431e-05
-6.021264496812063e-06
-3.167447201326816e-06
-1.380230359805077e-07
1.5246683233888005e-10
5.492941187351879e-08
3.051467860414838e-07
1.092842633385114e-06
3.1093039313787254e-06
7.589967554340265e-06
1.6536582566191074e-05
3.2935563495498766e-05
6.093117600738428e-05
0.00010590811887508467
0.0001744421053758484
0.000274089268383727
0.0004130038944293766
0.0005993960536739045
0.0008408624265750936
0.0011436415042164207
0.0015118556902293057
0.0019468062719798563
0.0024463827574520217
0.0030046369002792324
0.0036115559023257955
0.004253051214561319
0.004911161420774296
0.005564451858029597
0.006188581275215486
0.006756997660488424
0.007241721462502867
0.007614174376131922
0.007846014917100684
0.007909947264763656
0.007780476384306628
0.007434589417268296
0.006852350080872991
0.006017398860262392
0.0049173568195935765
0.003544134770015187
0.0018941523176230638
-3.152693209371164e-05
-0.002227136864147757
-0.004682219721872275
-0.007381699398620156
-0.010306010931503923
-0.013431280943163261
-0.016729554876307232
-0.020169068019918458
-0.023714558485642915
-0.027327621428177393
-0.030967104897491715
-0.034589548751154914
-0.038149669024689574
-0.04160089102414046
-0.044895935108211826
-0.04798745956840988
-0.05082876504453146
-0.05337456431930248
-0.05558181984671163
-0.05741064865628267
-0.0588252899872136
-0.05979512481989934
-0.060295728188881306
-0.060309924833601605
-0.05982880682685872
-0.05885265930794939
-0.057391728920912294
-0.055466761085777964
-0.0531092290459099
-0.05036118162736985
-0.047274648807519325
-0.04391056426625353
-0.040337190714675154
-0.03662806515893324
-0.03285951607986681
-0.029107842612398786
-0.025446287583690372
-0.021941980758445896
-0.018653070910995804
-0.015626294828802775
-0.012895233083003896
-0.010479462031163003
-0.00838472284246716
-0.006604099857504248
-0.005120056985135058
-0.003907056985476737
-0.0029344175284254205
-0.0021690583223077124
-0.0015778615905044009
-0.0011294794012258874
-0.0007955412108060531
-0.0005513122449249669
-0.0003759106937451939
-0.0002522086793361001
-0.00016653041163571458
-0.00010823667131992437
-6.926012106005256e-05
-4.3636588963635695e-05
-2.7062879312199967e-05
-1.649647228965831e-05
-9.780646962552182e-06
-5.165448037033908e-06
-2.24353873201613e-07
4.5497578464846174e-10
1.2828380200345212e-07
6.706400004933974e-07
2.2895290087699356e-06
6.257147381854733e-06
1.4747495532213519e-05
3.1140845829640855e-05
6.028763127294364e-05
0.00010867007478251406
0.0001844025442466031
0.0002970260845777689
0.00045707681058164434
0.000675437669171328
0.0009625132333755484
0.0013272925354623475
0.0017763815185381
0.0023130923546083675
0.002936671526256595
0.0036417338466874527
0.004417948364083125
0.005249997772624741
0.006117808855408159
0.0069970303552062615
0.007859718381618095
0.008675178940336271
0.009410912465873096
0.01003360572941988
0.01051012111762844
0.010808440775871746
0.010898532222141386
0.010753111652058842
0.010348290388568673
0.009664098160055338
0.008684883747629296
0.007399598870922915
0.005801974992017416
0.003890605132190421
0.0016689440044958862
-0.0008547600182264582
-0.0036675881424129077
-0.006752117790576745
-0.01008662239849647
-0.013645296002577523
-0.017398496312908615
-0.021313002162760022
-0.025352283501817383
-0.029476784423392417
-0.0336442220551198
-0.03780990646388305
-0.04192708898045111
-0.045947348464411016
-0.04982102689650399
-0.05349772714771377
-0.05692688662036608
-0.060058440411735164
-0.06284358637911222
-0.06523566160038252
-0.06719113481588115
-0.0686707121213255
-0.06964054317692625
-0.07007350243781363
-0.06995050468681953
-0.06926179727107014
-0.06800815437184674
-0.06620188353666641
-0.0638675443074983
-0.06104227601606818
-0.05777563918611282
-0.054128893831937516
-0.05017366791745194
-0.04599000822385868
-0.041663850607503945
-0.037283993816471066
-0.03293870832880061
-0.028712157728121475
-0.024680853227136708
-0.020910397646997817
-0.0174527944525875
-0.014344587367755299
-0.011606043971640409
-0.009241497095138246
-0.007240819231785915
-0.005581851902015983
-0.004233479108954282
-0.0031589561813607225
-0.0023191030855448614
-0.0016750429839760225
-0.0011902887656824255
-0.0008321163284911409
-0.0005722787824334449
-0.0003871887485815393
-0.0002577224961262653
-0.00016879014140798413
-0.00010878724176598928
-6.90097666818251e-05
-4.308453010501476e-05
-2.6438346890440316e-05
-1.5777515808036245e-05
-8.37125921895922e-06
-3.622552033723762e-07
1.2267138486670414e-09
2.846515187447369e-07
1.4082728096663033e-06
4.599051978725551e-06
1.2102785785438637e-05
2.7592547791876048e-05
5.6551241360842114e-05
0.00010654576504421609
0.00018731018677421816
0.00031057137288544983
0.000489581177115853
0.0007383590327665245
0.0010706902127325206
0.0014989606821713356
0.0020329334885898615
0.0026785807452812307
0.003437079125846048
0.004304057642243771
0.005269158348832809
0.00631593830888288
0.007422109333198788
0.00856008444099079
0.009697779216681269
0.01079960338597854
0.011827572924712657
0.012742474828942935
0.013505023729759442
0.014076960024158472
0.014422051369054488
0.014506971760466955
0.014302043867645999
0.013781840075166068
0.01292564542731214
0.011717791286150496
0.010147872141034348
0.008210859912946164
0.00590713061924571
0.0032424177533657886
0.00022770551532124857
-0.003120926619421003
-0.0067824983631689
-0.010731354389106062
-0.014937415543532923
-0.019366451364683106
-0.023980371381666823
-0.028737534152205046
-0.03359307439417212
-0.038499249918824134
-0.04340581143286292
-0.04826039968741593
-0.053008975943901374
-0.057596293298915864
-0.061966418014908306
-0.06606331152561637
-0.06983148502238935
-0.07321673917099786
-0.07616700113381138
-0.0786332691445957
-0.08057067078846461
-0.08193963424959126
-0.08270716157151847
-0.08284817914982419
-0.0823469234191793
-0.08119829985582076
-0.07940913270572071
-0.07699920392164224
-0.07400196610101958
-0.07046480956813421
-0.06644877154693005
-0.062027597711209616
-0.057286103246818085
-0.05231782948467582
-0.04722204881577521
-0.04210022986998578
-0.0370521322282307
-0.03217175169749963
-0.027543380151516323
-0.023238073292942824
-0.019310827353464538
-0.015798740784009103
-0.012720369245610902
-0.010076368574969328
-0.007851370827010607
-0.006016877964654995
-0.004534821433065017
-0.003361358086772814
-0.0024504744610364232
-0.0017570506112076255
-0.0012391677852296801
-0.0008595937815452118
-0.0005865090794820004
-0.000393621316087764
-0.0002598490275815606
-0.0001687469643475742
-0.00010781167501140288
-6.776275105609951e-05
-4.1845562705941775e-05
-2.5114286261316775e-05
-1.337207760005751e-05
-5.764879299075074e-07
3.0509199725315827e-09
6.024235529685255e-07
2.8335368462312668e-06
8.878208123277432e-06
2.2545274322229136e-05
4.980084069233341e-05
9.919607490213657e-05
0.0001820775349585672
0.00031248253210850455
0.0005066596445306124
0.0007822066963028529
0.0011568750470328734
0.0016471391624125558
0.002266665414931348
0.0030248288190111005
0.003925420090893778
0.0049656609788732405
0.006135608795349009
0.007417988222805444
0.008788446265561266
0.010216189923399614
0.011664939183204876
0.01309411171732952
0.014460149981281416
0.015717904691913382
0.016821998678833945
0.01772810933496532
0.018394123997013463
0.018781138619963784
0.018854284658447754
0.018583381262764518
0.017943419351234148
0.016914890823829964
0.015483980384920298
0.013642639544617745
0.01138856282527491
0.008725085459037652
0.005661020318716107
0.002210449798175397
-0.0016075139091676202
-0.005768989028179819
-0.010245596126405857
-0.01500473519095971
-0.020009863442811332
-0.025220771522973657
-0.030593857666988536
-0.03608240142652672
-0.041636840428854
-0.047205055611233615
-0.05273267234388363
-0.05816338686269946
-0.06343932944913222
-0.06850147776232772
-0.07329013554122828
-0.07774549337743036
-0.08180828915144242
-0.08542058565905931
-0.08852668145053795
-0.09107416737685013
-0.09301513512819948
-0.09430753450971119
-0.09491666280936996
-0.09481675216986113
-0.09399259971948677
-0.09244116148263859
-0.09017300691525836
-0.08721350950956504
-0.08360363439821991
-0.07940018074967044
-0.07467534896997102
-0.06951553271159049
-0.06401928328315895
-0.058294456118242834
-0.05245461978930353
-0.04661488058845441
-0.04088734303970353
-0.035376483080357644
-0.030174751165732695
-0.025358741888298352
-0.02098625778032037
-0.01709454930779584
-0.013699923950136096
-0.010798785176959426
-0.008369999875594242
-0.0063783267270807464
-0.004778503145719086
-0.0035195176580776013
-0.002548606817141791
-0.0018146075343523282
-0.0012704417341262066
-0.0008746720774185942
-0.0005922071523214931
-0.00039432642681403064
-0.00025823193290154924
-0.00016632338271438803
-0.0001053511941515448
-6.553331149316794e-05
-3.958365438631289e-05
-2.1157357801947478e-05
-9.084654266560626e-07
7.0900648176661916e-09
1.2200441448399867e-06
5.476728115741758e-06
1.650609853273975e-05
4.052332037354632e-05
8.68558126242292e-05
0.00016833864183153546
0.00030133560178623403
0.0005052900677706188
0.0008017769661549468
0.0012131036009739127
0.0017605772351850092
0.00246260823234004
0.003332841281238763
0.004378501904739095
0.005599114806626403
0.006985702257161186
0.008520514046092267
0.010177284656259233
0.011921965543783282
0.01371384542889902
0.015506951191185654
0.017251615790515713
0.0188961053251638
0.020388211651232186
0.02167673642873124
0.02271281382539523
0.023451039826278147
0.023850394369220852
0.023874957327165217
0.02349443032202443
0.022684483614056356
0.021426951323854443
0.01970989963927823
0.017527592110746434
0.014880374278160762
0.01177449724155372
0.008221896810138992
0.004239941848321035
-0.00014883741587101235
-0.004917032930299938
-0.010032648268267521
-0.015459389979313832
-0.021156958473312577
-0.0270813374772976
-0.03318508234556547
-0.03941760865237958
-0.04572548363034603
-0.052052724214055886
-0.05834110678284122
-0.06453049523499717
-0.07055919581762486
-0.0763643491990941
-0.08188237257196375
-0.08704946700421506
-0.09180220760214779
-0.09607823596094157
-0.09981707535165724
-0.10296108845120285
-0.10545659433869793
-0.10725515503967144
-0.1083150312012557
-0.1086027908283171
-0.10809503414551122
-0.10678017205118112
-0.1046601668058964
-0.10175211432038692
-0.09808952174556443
-0.09372311712629965
-0.08872102512652813
-0.0831681590213844
-0.07716471703667636
-0.07082373030536634
-0.06426768612675206
-0.05762433650105207
-0.05102188877880621
-0.0445838532584559
-0.03842388345540707
-0.032640981849191904
-0.027315451262626373
-0.02250594360486046
-0.01824788784097742
-0.014553465173392875
-0.011413146595346492
-0.008798632794122574
-0.0066668671591947155
-0.004964663958314345
-0.0036334361221722045
-0.0026135358478266693
-0.001847829615113798
-0.0012842894526704479
-0.0008775547619604333
-0.0005895653861093926
-0.0003894613226450349
-0.00025297947498207013
-0.000161557790952389
-0.00010128018915105057
-6.159401911696639e-05
-3.305474630861787e-05
-1.4134268577504657e-06
1.5533084262055458e-08
2.3713583671819064e-06
1.0192262440893636e-05
2.9613483500561368e-05
7.04056739991516e-05
0.00014661944729462678
0.00027680933992029177
0.00048368060728737485
0.0007930946148630623
0.0012324705823783984
0.0018287191339343535
0.0026059171839622254
0.0035829716680641985
0.004771517747555264
0.006174259792533014
0.00778390096479669
0.009582732613464187
0.011542880732026159
0.013627143642409485
0.01579030934577442
0.017980815114572512
0.020142604988895516
0.02221704957310092
0.02414481232852411
0.02586757259551345
0.027329543529135535
0.0284787496294066
0.029268051343907246
0.02965592214748132
0.029606996278181988
0.02909241328911252
0.028089989509866888
0.026584247318250202
0.024566331729496613
0.02203384104246379
0.01899059480890445
0.015446358706659183
0.011416542329227602
0.006921882642046211
0.0019881229821580625
-0.003354304999856208
-0.009070591178018087
-0.015121845119436967
-0.021465380739574463
-0.0280549870546072
-0.03484118600529578
-0.04177147965515632
-0.048790590405401124
-0.055840699262371216
-0.06286168868015755
-0.06979139812069231
-0.0765659022614653
-0.08311982376284448
-0.08938669468516401
-0.09529938297837186
-0.10079060283846886
-0.1057935299095521
-0.11024254393313855
-0.11407412194943961
-0.1172279037799522
-0.11964794732513588
-0.12128418313823662
-0.12209406475432327
-0.12204439257615975
-0.12111326450712089
-0.11929207664046858
-0.11658746408133454
-0.11302303880723819
-0.10864075328212165
-0.10350170137368771
-0.09768616831418975
-0.09129276432204227
-0.08443652490067607
-0.0772459337937986
-0.06985891675475987
-0.06241795641374903
-0.05506457893152122
-0.04793354981037251
-0.041147178644689995
-0.03481016245839747
-0.029005388388967546
-0.02379106427771458
-0.019199447884726474
-0.015237304206426413
-0.011888046027296522
-0.009115326227275724
-0.0068676817786299475
-0.00508371240945105
-0.0036972385838649974
-0.0026419341893270326
-0.0018550577166256798
-0.0012800808877109135
-0.0008681948169964082
-0.0005788227648927905
-0.0003793596844815097
-0.0002443790563843549
-0.00015447553206249945
-9.46338019107884e-05
-5.1006446842149524e-05
-2.1715628021123768e-06
3.22928537571318e-08
4.435002723788404e-06
1.830219844655836e-05
5.136537782923612e-05
0.00011844009604151598
0.00023993809032429346
0.0004417067226185385
0.0007540577077191515
0.0012099974286952414
0.0018428061571844415
0.0026832210187684165
0.003756537935742336
0.005079953753802915
0.006660426055065105
0.008493248404336119
0.010561440970230908
0.012835958520439129
0.015276634144118692
0.017833716810046127
0.020449827477423917
0.02306215055973905
0.025604690375057516
0.02801044937338773
0.030213419744242676
0.03215031662056445
0.03376201506947102
0.03499468156298984
0.03580061231275823
0.03613880558741548
0.03597530359313245
0.035283342837687796
0.0340433514375667
0.032242828840005545
0.029876139012535784
0.026944243154915712
0.02345439301575638
0.01941980132709152
0.014859301900944262
0.009797008624950188
0.004261979922698116
-0.0017121068693806652
-0.00808726841429489
-0.014821514088467987
-0.0218691300646902
-0.029180949221141856
-0.036704608133532934
-0.04438479318311812
-0.052163478624950535
-0.05998016036711793
-0.06777209027397724
-0.07547451708945191
-0.08302094164730334
-0.09034339595683996
-0.09737275807102203
-0.10403911736845946
-0.11027220795395958
-0.11600193114171804
-0.12115899111889314
-0.12567567038776917
-0.12948677271324538
-0.1325307600779015
-0.13475110537965856
-0.13609787299972273
-0.1365295237034188
-0.1360149177603723
-0.13453546056572213
-0.13208729944793096
-0.12868344133861778
-0.12435562290127426
-0.11915573359950296
-0.1131565752058685
-0.10645174565262984
-0.09915446668387073
-0.09139523609092536
-0.08331827442625514
-0.07507684587335418
-0.06682765176636217
-0.0587246087514352
-0.05091241712099856
-0.043520385715903505
-0.036656998496977664
-0.030405678497585856
-0.02482212495733155
-0.019933470724430604
-0.01573933718009633
-0.012214668934913884
-0.009314035541802755
-0.006976924330093872
-0.005133448999274596
-0.0037098851384883744
-0.0026335207517170023
-0.001836460246798632
-0.0012582097793692865
-0.0008470581906865135
-0.000560411908278028
-0.00036431074456809957
-0.00023229217786178524
-0.00014339644599951586
-7.763885088179936e-05
-3.290472423611275e-06
6.403569035924625e-08
7.999894881105459e-06
3.177440737142463e-05
8.628794776282072e-05
0.00019323176318901934
0.00038122288442852897
0.0006849684553607158
0.0011433884575018322
0.0017968428885180821
0.0026837647738848823
0.0038370956193447656
0.0052809414588620785
0.0070278195781034985
0.009076765896749515
0.011412445545698965
0.01400527951149444
0.016812488821162555
0.019779877598616016
0.02284413238334475
0.025935405439050433
0.028979967754263602
0.0319027540875943
0.034629668546070975
0.03708956687491382
0.039215875021283556
0.04094783903958562
0.04223142752889094
0.04301992464051682
0.043274260437195386
0.042963127749465355
0.04206293252796583
0.04055761975914274
0.03843841071998296
0.035703480751979856
0.03235760053466909
0.028411758426442165
0.023882776969476206
0.01879293311654087
0.013169589020512245
0.007044838174944964
0.00045517013755416177
-0.006558844147444274
-0.013952845416926629
-0.021678957427690413