# vtk DataFile Version 4.1 
COMMENT
ASCII
DATASET STRUCTURED_POINTS 
DIMENSIONS 100 100 1 
ORIGIN 0 0 0
SPACING 0.12693303650867893 0.12693303650867893 0 
POINT_DATA 10000
SCALARS U double 1
LOOKUP_TABLE default
0.0
0.0
0.0
0.0
0.0
0.0
0.0
0.0
0.0
0.0
0.0
0.0
0.0
0.0
0.0
0.0
0.0
0.0
0.0
0.0
0.0
0.0
0.0
0.0
0.0
0.0
0.0
0.0
0.0
0.0
0.0
0.0
0.0
0.0
0.0
0.0
0.0
0.0
0.0
0.0
0.0
0.0
0.0
0.0
0.0
0.0
0.0
0.0
0.0
0.0
0.0
0.0
0.0
0.0
0.0
0.0
0.0
0.0
0.0
0.0
0.0
0.0
0.0
0.0
0.0
0.0
0.0
0.0
0.0
0.0
0.0
0.0
0.0
0.0
0.0
0.0
0.0
0.0
0.0
0.0
0.0
0.0
0.0
0.0
0.0
0.0
0.0
0.0
0.0
0.0
0.0
0.0
0.0
0.0
0.0
0.0
0.0
0.0
0.0
0.0
6.721884581563653e-13
-3.2969859572172734e-10
-3.839452649973606e-09
-2.2660414677664585e-08
-9.573536132540833e-08
-3.2713041745935314e-07
-9.602043567063194e-07
-2.507711885104327e-06
-5.961745550854851e-06
-1.3108603598354348e-05
-2.6970825652858733e-05
-5.239081808458747e-05
-9.675750433161244e-05
-0.00017086003310790176
-0.0002898324515547455
-0.0004741328318803817
-0.0007504824307190005
-0.0011526777764726815
-0.001722183299839273
-0.002508415529173468
-0.00356864215099148
-0.004967439459839561
-0.006775678010164941
-0.009069036093293566
-0.011926071155707228
-0.015425907686606462
-0.019645624068013623
-0.024657438666437364
-0.030525806074901532
-0.03730453768301598
-0.04503405714938094
-0.053738891912281456
-0.06342548800556279
-0.07408041872794664
-0.0856690397292012
-0.09813462526762583
-0.11139800395753219
-0.12535769815295444
-0.13989055976313014
-0.15485288699888866
-0.17008200124116893
-0.18539826058012135
-0.20060748606103615
-0.21550377759245387
-0.22987269800175322
-0.24349480496228354
-0.2561495105170128
-0.26761924573268925
-0.2776939027155608
-0.2861755169678316
-0.292883139170326
-0.29765782646587446
-0.30036765902035445
-0.30091265829387337
-0.2992294498361733
-0.29529547698937303
-0.28913253499363595
-0.28080936117422306
-0.27044299117939313
-0.2581985805160061
-0.24428740373253388
-0.22896279088092492
-0.2125138527324526
-0.19525699011475814
-0.17752537890607556
-0.15965685866043666
-0.1419809015685539
-0.12480555568447425
-0.108405388878222
-0.09301145855639753
-0.07880416909250504
-0.06590956359639663
-0.054399181725099714
-0.044293186754162876
-0.03556611762218733
-0.028154426039885185
-0.021964936810663045
-0.016883487769301955
-0.012783193014982236
-0.009531953965147232
-0.006998970232015154
-0.005060073207520237
-0.0036017509759461237
-0.002523793442365298
-0.001740582066454726
-0.001181168671678743
-0.0007883984236129915
-0.0005173969470386773
-0.00033374236285726853
-0.00021158727563515704
-0.00013190985074233857
-8.098736648387951e-05
-4.912076484834006e-05
-2.960078463277785e-05
-1.7889730735714496e-05
-1.0987720697208467e-05
-6.9487447965515094e-06
-4.499264490038968e-06
-2.6605464668837742e-06
-1.1607148537632388e-07
1.3197112219763432e-12
-1.0992117665079357e-09
-1.0192583685929051e-08
-5.272231516113824e-08
-2.021888033972822e-07
-6.386128368105629e-07
-1.7519685668576476e-06
-4.308648944983097e-06
-9.698204571607918e-06
-2.0272851905863976e-05
-3.978317853828648e-05
-7.390056241701729e-05
-0.00013080148154624713
-0.00022177329094013308
-0.0003617877406086489
-0.0005699799609139718
-0.0008699687287996946
-0.0012899594765346533
-0.0018625845023418507
-0.0026244538734953855
-0.003615413387852126
-0.004877529987296963
-0.006453847429766927
-0.008386973388250792
-0.010717571660194042
-0.013482838867009246
-0.01671504379150617
-0.02044020000755195
-0.024676929964346093
-0.02943556282769923
-0.0347174909121541
-0.04051479213736679
-0.046810110040958655
-0.05357676956095966
-0.0607790967564431
-0.06837290417670581
-0.07630610069692596
-0.08451938503138097
-0.0929469853558096
-0.10151741296145325
-0.11015420503725411
-0.11877663996723126
-0.12730041742487064
-0.1356383046020183
-0.14370075875047886
-0.15139654451872023
-0.15863337204493333
-0.16531858814065387
-0.1713599578714555
-0.17666657708721492
-0.18114995760902058
-0.18472532543534612
-0.18731316803131348
-0.1888410589852396
-0.1892457763982924
-0.18847571441786456
-0.18649356405576195
-0.18327920810315831
-0.17883273348389653
-0.17317741096711448
-0.16636242660328304
-0.15846507517362296
-0.14959205343414309
-0.13987943862431854
-0.1294909325473393
-0.11861402428884395
-0.10745390011210854
-0.09622521217170124
-0.08514218003673095
-0.07440787309825343
-0.06420381008490328
-0.0546811127475077
-0.0459542974517533
-0.03809838409816367
-0.031149433874740427
-0.02510804762455025
-0.019944929336976832
-0.015607457037554466
-0.012026320733974891
-0.009121596768350308
-0.006807983574396206
-0.0049991887698742216
-0.00361156388116709
-0.0025670513540304815
-0.0017954208287663113
-0.001235717162838749
-0.0008368691885155897
-0.0005575046953413592
-0.0003651317820410206
-0.00023492348875506732
-0.00014835228210576592
-9.187053472763257e-05
-5.57537175486383e-05
-3.314846514586015e-05
-1.9318259239317933e-05
-1.105763407350902e-05
-6.241613412089969e-06
-3.474723423628615e-06
-1.773533142958816e-06
-7.987011178795544e-08
1.319958704245002e-12
-3.391555361421365e-09
-2.7606073168307425e-08
-1.3201777065102732e-07
-4.786846221293666e-07
-1.4477590512672052e-06
-3.83495971707081e-06
-9.161015298665129e-06
-2.0120829898247407e-05
-4.119197177361205e-05
-7.940766523285665e-05
-0.00014527971341757851
-0.0002538338384461308
-0.00042569681885387125
-0.0006881549161332805
-0.0010760895472621745
-0.001632691307285607
-0.0024098584081146805
-0.00346820015799957
-0.004876588779331458
-0.006711231198252153
-0.009054263432500993
-0.011991900750232447
-0.01561220408117847
-0.02000254506260202
-0.02524686722302789
-0.031422848612376354
-0.0385990719099473
-0.0468323025279294
-0.056164964743584185
-0.06662289192160674
-0.07821341094880964
-0.09092380450648024
-0.10472017895230369
-0.11954675130875518
-0.13532555680971506
-0.1519565690202326
-0.16931821785128046
-0.187268286773843
-0.20564516896448268
-0.2242694626330811
-0.2429458879447342
-0.2614655112323207
-0.27960826602655003
-0.29714576417664484
-0.3138443933170194
-0.3294686984233306
-0.34378504442231667
-0.35656555297867815
-0.36759229890660167
-0.376661739475767
-0.3835893327678997
-0.3882142791712211
-0.39040429369267443
-0.39006028749126453
-0.38712080734798526
-0.3815660550593156
-0.3734212888315266
-0.3627593991413883
-0.34970245407085454
-0.334422022783056
-0.31713810606302095
-0.29811652268437333
-0.27766461356398575
-0.25612513221544
-0.2338682018864774
-0.2112812636699256
-0.18875705279879756
-0.16667985540048502
-0.14541062257889137
-0.12527191298726775
-0.10653400368955934
-0.08940371774853291
-0.07401743630261398
-0.060439327555598436
-0.04866508165581689
-0.03863055563332628
-0.03022394745169171
-0.023299660129943646
-0.01769200678819571
-0.013227308718931812
-0.009733575286275263
-0.007047592273643342
-0.005019693701587295
-0.0035166760263251984
-0.0024232813567132408
-0.0016425480995336092
-0.0010952199846717555
-0.0007183754371043688
-0.0004634767095765407
-0.0002940894506411872
-0.00018353812660110519
-0.00011272193064704111
-6.823466016112353e-05
-4.084266245442878e-05
-2.430481005524701e-05
-1.4476516126391156e-05
-8.609575030431842e-06
-4.6732166690776465e-06
-2.0460573427342437e-07
-3.872396966802465e-12
-9.34760629275692e-09
-6.807759953392035e-08
-3.020037156864035e-07
-1.0332439003806277e-06
-2.9780346324805137e-06
-7.566488712773576e-06
-1.7416686322961148e-05
-3.698541505893775e-05
-7.339962333295511e-05
-0.00013744752518400486
-0.0002446793355482532
-0.00041653914556885553
-0.0006814262744273706
-0.0010755709099080045
-0.001643608012520001
-0.0024387464424474935
-0.00352245610369362
-0.00496363170790964
-0.006837233287292121
-0.009222445927527464
-0.012200439562672185
-0.015851840076519377
-0.02025404264926435
-0.025478506014132273
-0.03158816224645812
-0.03863506234070983
-0.046658355477823155
-0.055682672377827196
-0.06571695340569626
-0.07675373286086222
-0.0887688643803043
-0.1017216502725061
-0.11555532088935243
-0.13019779925086214
-0.14556268097212902
-0.16155035962665093
-0.1780492322852925
-0.19493692823480266
-0.21208151491671287
-0.22934264810019653
-0.24657264747507457
-0.2636174936094385
-0.28031775706389245
-0.29650948498604546
-0.3120250843653261
-0.3266942539349459
-0.3403450280027883
-0.3528050046474337
-0.36390283685885627
-0.3734700671651205
-0.38134338258067163
-0.38736735559710445
-0.3913977165936085
-0.39330517190780795
-0.39297973907797074
-0.39033551704579234
-0.38531574702852733
-0.37789795435820445
-0.3680989000142673
-0.35597902097811096
-0.3416460078697616
-0.32525715977471203
-0.30702016731975323
-0.28719199851011784
-0.26607558960444094
-0.24401407472066608
-0.22138233809035116
-0.1985757762644355
-0.17599635973668445
-0.1540364192882188
-0.13306104505222702
-0.11339050143347368
-0.09528448451210442
-0.07893020166154313
-0.06443599083621145
-0.05183148486560843
-0.041074286307131044
-0.03206201247126994
-0.024647713094450484
-0.018656300867244218
-0.013899843184711437
-0.010190218333668035
-0.007348478288846731
-0.00521100072260886
-0.0036329678055311517
-0.0024898439958716103
-0.0016774336553766755
-0.0011109284615251403
-0.0007232209625603679
-0.00046270741376119574
-0.0002908066120410563
-0.00017943062356124285
-0.00010861984094022864
-6.449239874277643e-05
-3.757591277688854e-05
-2.151180002689821e-05
-1.2051314214360059e-05
-6.122435182026252e-06
-2.6957576115607396e-07
-2.8402610791266396e-11
-2.34924593685072e-08
-1.561616764758931e-07
-6.495924827624415e-07
-2.1132059378143504e-06
-5.8415495672395306e-06
-1.4319766740653419e-05
-3.1942034863891444e-05
-6.595886584491823e-05
-0.00012764101485553434
-0.00023361355992654046
-0.00040727849921207593
-0.000680213788724681
-0.0010934165723159787
-0.001698252425182019
-0.002556982478426776
-0.0037427655146400115
-0.005339069416761706
-0.007438470952867296
-0.01014086926135954
-0.013551181200434692
-0.01777662152530817
-0.02292369470638905
-0.029095036827981997
-0.03638624573254363
-0.04488282701567404
-0.05465736511016039
-0.06576700540002078
-0.07825130793213904
-0.09213050835197276
-0.1074041991380885
-0.12405042536750642
-0.1420251748051592
-0.16126223223140837
-0.1816733623417103
-0.2031487837353169
-0.2255578977708283
-0.24875023968042825
-0.27255662461435703
-0.2967904676311043
-0.32124926356299294
-0.34571621978517303
-0.3699620419052026
-0.3937468790457289
-0.4168224415284128
-0.4389343092054362
-0.4598244532236404
-0.4792339973881568
-0.4969062471707646
-0.5125900143128211
-0.5260432622716026
-0.5370370916226168
-0.5453600739076165
-0.550822926047036
-0.55326349393244
-0.5525519818945771
-0.5485963236359996
-0.5413475403108171
-0.5308048750792029
-0.5170204357325092
-0.5001030259601077
-0.48022081188500176
-0.4576024641188039
-0.432536443812029
-0.4053681636426737
-0.37649484139340267
-0.34635795707454337
-0.315433306977194
-0.2842187145043952
-0.2532195266273294
-0.2229321400623656
-0.19382601640339284
-0.16632499164698775
-0.1407891334889241
-0.11749883743960482
-0.09664310104033672
-0.07831378879765138
-0.06250709568061255
-0.04913238872115623
-0.03802738386724455
-0.028977538693582827
-0.021736934019451287
-0.016047951889005672
-0.011657683717740308
-0.008329974079305965
-0.00585299164616415
-0.004042943496302659
-0.002744889039275341
-0.00183160786590956
-0.001201278251258723
-0.0007744875512274136
-0.0004909212495006588
-0.00030598456099303
-0.0001875669056712745
-0.00011312174381250968
-6.717735888921611e-05
-3.931483609880428e-05
-2.253531866380817e-05
-1.1659738195490971e-05
-5.08960649506898e-07
-1.083348252723653e-10
-5.4298299443435565e-08
-3.337875973398107e-07
-1.3110060748608938e-06
-4.072945902013016e-06
-1.083034441682867e-05
-2.5667921088154604e-05
-5.556258324250344e-05
-0.00011166425539578578
-0.00021079255062609657
-0.00037705797998418774
-0.0006434763097471933
-0.0010534164780732652
-0.0016617119840912514
-0.0025352758440542965
-0.0037530896671551872
-0.00540548451352714
-0.007592688891814071
-0.010422680187785562
-0.014008432633953122
-0.018464701386389074
-0.02390451401351653
-0.030435555624237727
-0.03815663209001688
-0.04715437932875911
-0.05750035870382093
-0.06924864321541391
-0.08243396038461634
-0.09707041923685997
-0.11315081357373243
-0.13064646391852336
-0.14950753739787592
-0.16966376885415746
-0.19102549750314038
-0.2134849308264616
-0.23691755019764987
-0.26118357993367014
-0.2861294519860628
-0.31158921136796436
-0.3373858218281171
-0.3633323465695531
-0.3892329944750474
-0.41488403799798135
-0.4400746243756296
-0.46458751696325085
-0.48819981813307267
-0.5106837391546349
-0.5318074954921923
-0.5513364175706461
-0.5690343765852006
-0.5846656313694447
-0.5979972043431683
-0.6088018903980313
-0.6168619901288228
-0.6219738356545322
-0.6239531408390134
-0.6226411556638137
-0.6179115352493214
-0.6096777476197731
-0.5979007435760046
-0.5825965037655513
-0.5638429738578887
-0.541785814953267
-0.5166423519594636
-0.4887031150626915
-0.45833044846673227
-0.4259538030004255
-0.39206151656522353
-0.357189089914603
-0.32190415809615125
-0.28678853111412533
-0.25241785062293814
-0.21933962596302073
-0.18805071354434685
-0.15897568708273674
-0.13244793469444974
-0.10869555601019927
-0.08783402963797898
-0.069867043764299
-0.05469583906457633
-0.042136097594490426
-0.03194016299530768
-0.02382156105990473
-0.01747864893467598
-0.01261477440150187
-0.008953361207110617
-0.0062475040201602225
-0.004284620345757993
-0.0028872656172928917
-0.0019113531769162843
-0.001242856506115642
-0.0007937821276158198
-0.0004979291723153234
-0.0003067605128473189
-0.0001855967154989825
-0.00011027030052776599
-6.430219393912836e-05
-3.652499992281829e-05
-1.8648290038479208e-05
-8.130898729256323e-07
-3.2170536322270547e-10
-1.160231195273047e-07
-6.663351786621545e-07
-2.486368663345147e-06
-7.4095399035547875e-06
-1.9019514190281962e-05
-4.3710692688587153e-05
-9.206681439563949e-05
-0.00018052047869792344
-0.00033320314350375056
-0.0005838446794940669
-0.0009775434050863794
-0.0015722095639896314
-0.002439491930386696
-0.0036650288434032187
-0.005347917473436627
-0.007599361219296546
-0.01054052576487236
-0.014299700338550382
-0.019008914381361434
-0.024800195862501533
-0.03180167353442089
-0.04013372198808489
-0.049905328267192156
-0.06121082638353514
-0.07412710638545705
-0.08871136261872543
-0.10499940575138852
-0.12300452822837754
-0.14271688510345532
-0.1641033325464378
-0.1871076546568287
-0.2116511047294904
-0.23763318856570523
-0.2649326233578585
-0.2934084146558895
-0.32290100465515814
-0.3532334564701847
-0.3842126503906227
-0.41563047883782733
-0.447265036576258
-0.4788818116042303
-0.5102348901208008
-0.5410681962053351
-0.5711167935704865
-0.6001082831844926
-0.6277643368996686
-0.6538024135919215
-0.6779377107094562
-0.6998854103653334
-0.7193632847552779
-0.7360947299754415
-0.7498122990772242
-0.7602618027612518
-0.7672070372812809
-0.7704351811876844
-0.7697628723885152
-0.7650429314591537
-0.7561716334827823
-0.7430963476319762
-0.7258232625544238
-0.7044248019621211
-0.6790462198271715
-0.6499107656128588
-0.6173227492410378
-0.5816678361443295
-0.5434099822221221
-0.5030845810206276
-0.4612876268183734
-0.4186609663558877
-0.37587398086348167
-0.33360228140686665
-0.29250421328788745
-0.25319617763884833
-0.21622803001871418
-0.18206012049333978
-0.15104384640542726
-0.12340776830782582
-0.09925121588349214
-0.07854674079883676
-0.06115173876756185
-0.046828226496665376
-0.03526844318745232
-0.02612302709670597
-0.019028276591658056
-0.013629508353845203
-0.009598594356556805
-0.006645047687206381
-0.004521165277135523
-0.003022468279529988
-0.0019849384014784272
-0.0012804265048661
-0.0008112868177424787
-0.0005049351085805447
-0.0003087430653507269
-0.00018548630025660146
-0.00010942031136517752
-6.284881416289578e-05
-3.2346494551121e-05
-1.4037302132165647e-06
-8.131688318620387e-10
-2.2959979220466627e-07
-1.2420064947699993e-06
-4.426418728694216e-06
-1.2704234873383489e-05
-3.158303483467123e-05
-7.05811794411005e-05
-0.00014500265747606912
-0.00027797876850949586
-0.0005026296965687211
-0.000864146712547606
-0.0014215655058121685
-0.002249000132582915
-0.0034361371695448375
-0.005087847240819943
-0.00732284793735672
-0.010271437308534167
-0.014072399034150206
-0.018869248971772765
-0.024806040810755443
-0.032022972467321276
-0.040652034653312664
-0.05081292177838689
-0.06260938807778788
-0.07612618463823288
-0.09142666185020082
-0.10855107200473954
-0.12751556230350458
-0.14831181207718858
-0.17090724076714722
-0.19524569533143868
-0.22124851645694726
-0.24881588103010985
-0.2778283222308333
-0.30814833683986603
-0.33962200050173336
-0.3720805246083558
-0.4053417022770493
-0.43921120497069144
-0.47348370526262834
-0.507943814891105
-0.542366840528065
-0.5765193726527097
-0.6101597356751673
-0.6430383401224664
-0.6748979903858612
-0.7054742142939404
-0.7344956935913344
-0.7616848871059176
-0.7867589506247467
-0.8094310686561147
-0.829412322374861
-0.8464142237454695
-0.8601520462011176
-0.8703490748812409
-0.8767418813050587
-0.879086695056101
-0.8771668949609951
-0.8708015710250078
-0.8598550136984419
-0.8442468686149418
-0.8239625559525701
-0.7990634022960075
-0.7696957841426421
-0.7360984579191201
-0.6986071792078232
-0.6576557229309373
-0.6137725297059614
-0.5675724297464033
-0.5197432205998413
-0.471027261589789
-0.42219864460336964
-0.37403685979390083
-0.3272981708186431
-0.28268615508060546
-0.24082307972650122
-0.20222399349641643
-0.16727558845079954
-0.13622192497440117
-0.10915887100240473
-0.0860384543310632
-0.0666832448622573
-0.050809519774085994
-0.038056624752582105
-0.02801899812118232
-0.020277062326698767
-0.014423695479358765
-0.010084115383368793
-0.00692839825211179
-0.004677127677317353
-0.003101538384662833
-0.002019877741780886
-0.001291627284682095
-0.0008108822804351705
-0.0004997648860296783
-0.00030236936676386573
-0.00017942888828817208
-0.00010350593225808959
-5.335602530632553e-05
-2.3083002026898872e-06
-1.8067889102455612e-09
-4.2002132852026e-07
-2.155121352319909e-06
-7.3734265704790454e-06
-2.0466450035500545e-05
-4.945458047081401e-05
-0.00010781488447783821
-0.00021666890912277375
-0.0004071903117571795
-0.0007230227815078163
-0.0012224515715657453
-0.00198005795863596
-0.003087609793309215
-0.004654000559575818
-0.006804135212273767
-0.00967676045482923
-0.013421335563352434
-0.018194124177165493
-0.02415374790952689
-0.031456474014016196
-0.040251511212480696
-0.05067656369643606
-0.06285384957100501
-0.07688673427560526
-0.09285706946097586
-0.11082327009050544
-0.1308191121850881
-0.1528531937782222
-0.1769089736167578
-0.20294528574847523
-0.2308972221010187
-0.26067727753933156
-0.2921766604861012
-0.3252666848407903
-0.3598001737320981
-0.3956128210550967
-0.4325244716620896
-0.47034029477900624
-0.5088518373380203
-0.547837954361676
-0.5870656224202764
-0.6262906497699257
-0.6652583034075719
-0.7037038793425129
-0.7413532482883951
-0.7779234151291671
-0.8131231372865313
-0.8466536548499172
-0.8782095942784784
-0.9074801177737826
-0.9341504019707431
-0.9579035420099926
-0.9784229894984675
-0.995395643896246
-1.0085157242884664
-1.0174895492300846
-1.0220413423794519
-1.021920156129365
-1.0169079590659236
-1.0068288606301152
-0.9915593437633254
-0.971039242112623
-0.9452830355158481
-0.9143908554252018
-0.8785584083799973
-0.8380848672863462
-0.7933776812098106
-0.7449532513220121
-0.6934325443970071
-0.639530980165855
-0.5840423234134378
-0.5278167955405014
-0.4717341314451629
-0.41667278028120436
-0.36347683546703136
-0.3129225656091038
-0.2656866176420693
-0.2223180928415039
-0.18321673810832453
-0.14861937539353406
-0.11859629573441005
-0.09305857132483258
-0.07177608485154335
-0.05440468835251942
-0.040519578128484966
-0.029651061747397983
-0.0213186774793772
-0.015060190184738488
-0.010453175542858432
-0.0071283777203444065
-0.004775392295470103
-0.0031421833217447023
-0.002030364898510487
-0.001288119084373039
-0.0008022534791104343
-0.0004904094191604312
-0.0002939142477667315
-0.00017106771770652887
-8.870698798913011e-05
-3.822066029988439e-06
-3.562989288672108e-09
-7.052406951271293e-07
-3.455141591154666e-06
-1.1410183162783081e-05
-3.07767043984583e-05
-7.259788236265134e-05
-0.00015500505399165508
-0.0003058145637673558
-0.0005652638394571265
-0.0009886095076621936
-0.0016482746609769834
-0.002635241431626714
-0.004059439406044766
-0.006048971943424948
-0.008748136409499011
-0.012314312915675779
-0.016913902227771244
-0.022717573651114122
-0.02989513003181441
-0.038610307674420315
-0.04901580739336356
-0.06124880629894224
-0.0754271374236332
-0.09164625528117686
-0.1099770381212807
-0.13046441819537438
-0.1531267836517587
-0.1779560613712613
-0.20491836893951798
-0.23395511452981768
-0.26498442349504825
-0.2979027774329629
-0.33258676300061907
-0.368894841765479
-0.4066690673130833
-0.4457366905925752
-0.48591160842201286
-0.5269956229047115
-0.5687794911986749
-0.611043755777784
-0.6535593552644342
-0.696088025374068
-0.7383825087658936
-0.7801866018919805
-0.821235076498352
-0.8612535234449227
-0.8999581771337618
-0.9370557901928599
-0.9722436402360886
-1.0052097635172843
-1.0356335239996641
-1.063186640446584
-1.0875348079588238
-1.1083400628180837
-1.1252640487818244
-1.1379723465253648
-1.1461400221957752
-1.1494585314769081
-1.1476440767407696
-1.140447450881882
-1.1276653067054425
-1.109152661202907
-1.0848362788852148
-1.0547283821264222
-1.0189399214586021
-0.9776924267899014
-0.9313272835580007
-0.8803111759704344
-0.8252364552707182
-0.7668153598452363
-0.7058673523006244
-0.6432993329691276
-0.5800790922698063
-0.5172030014851804
-0.455659529541059
-0.3963906441812567
-0.3402534746321764
-0.28798477843032366
-0.2401707796155965
-0.1972248218405154
-0.15937495954722466
-0.12666301325427903
-0.09895567875086884
-0.07596702861947628
-0.05729033768492455
-0.04243588763301121
-0.030870591496927696
-0.02205517816959825
-0.015475352928084402
-0.010664635050310468
-0.007218126408166242
-0.004797894556819435
-0.003131656293619029
-0.0020068922338515806
-0.001262457166080128
-0.0007793284082058028
-0.0004714747308777982
-0.00027671401974965786
-0.0001442600835619569
-6.191780452364756e-06
-6.187968811781594e-09
-1.068387471551013e-06
-5.0352133404103224e-06
-1.616243121121411e-05
-4.264369922325538e-05
-9.880175142347469e-05
-0.00020777645855753598
-0.0004045273106704732
-0.0007388697621403944
-0.0012781969147076006
-0.002109520548882354
-0.0033405050011754414
-0.0050992583165282886
-0.00753277192968332
-0.010804041391050592
-0.015088033981611293
-0.020566775649490127
-0.027423897315918568
-0.035839004743557355
-0.045982219515278124
-0.058009189311648675
-0.07205679470816621
-0.08823969893214992
-0.10664780700601273
-0.12734462960405726
-0.15036648995072624
-0.17572247148616763
-0.20339497970320747
-0.23334078167315958
-0.2654923884759231
-0.29975965581603065
-0.33603149344607175
-0.3741775919752135
-0.4140500941510389
-0.45548515533119643
-0.4983043537414306
-0.5423159248503431
-0.5873158057277913
-0.6330884847749327
-0.6794076600370542
-0.7260367158162561
-0.7727290328860719
-0.8192281526599428
-0.8652678205467546
-0.9105719387898502
-0.954854464675467
-0.9978192964606488
-1.0391601970683804
-1.0785608148920898
-1.1156948722875604
-1.150226605782345
-1.181811557819739
-1.210097837808867
-1.2347279897423749
-1.255341623349046
-1.2715789834106577
-1.2830856440447829
-1.2895185166243148
-1.290553345357425
-1.285893826002914
-1.2752824127969833
-1.2585127690099172
-1.2354436624488008
-1.2060139079561354
-1.1702577209307898
-1.1283195853132617
-1.0804674842637942
-1.0271031317239818
-0.968767726901845
-0.9061417819568234
-0.8400377867655188
-0.7713848914305441
-0.7012053898791623
-0.6305835194809453
-0.560627862590531
-0.49242934388928566
-0.4270173731163365
-0.36531703132874377
-0.308110324280244
-0.2560044358695498
-0.20940960978169568
-0.1685287448454465
-0.1333599675682976
-0.10371232490844906
-0.07923338254587414
-0.0594460971525699
-0.04379113563000322
-0.031670143541980555
-0.022485531847898314
-0.01567318080367668
-0.010725861563443252
-0.007206800883459257
-0.004754276929720594
-0.003079139877384602
-0.0019575722569281032
-0.0012212669848467542
-0.0007465432976214663
-0.0004423423264449694
-0.00023208403416625955
-9.919603080674281e-06
-9.13128165292054e-09
-1.401137973274304e-06
-6.42477487819672e-06
-2.028585388191886e-05
-5.296813723781957e-05
-0.00012185224334339312
-0.00025487222216777876
-0.0004939506334832724
-0.000898344149350166
-0.0015474705812428215
-0.002542796251054715
-0.00400844074319264
-0.00609029011021421
-0.008953574754228057
-0.012779035606730327
-0.017757945503076623
-0.024086352813650153
-0.03195896230259884
-0.04156306445267452
-0.05307287751894352
-0.06664458951183068
-0.08241229489156723
-0.10048492660666393
-0.12094419894815114
-0.14384350749756689
-0.16920768245652493
-0.19703346093905247
-0.22729053020212422
-0.25992299379891404
-0.2948511223238799
-0.3319732660297642
-0.37116782498269174
-0.4122951912201868
-0.45519959503460483
-0.4997108031834824
-0.5456456302530053
-0.5928092356867498
-0.6409961884864807
-0.6899912897453441
-0.739570150445015
-0.789499528746554
-0.839537437661291
-0.8894330407519454
-0.9389263605639624
-0.987747831952422
-1.0356177404594271
-1.0822455945247396
-1.1273294897238142
-1.170555533613394
-1.2115974113668668
-1.2501161854708254
-1.285760437582164
-1.3181668773480928
-1.346961561441736
-1.3717618856565077
-1.3921795322716424
-1.4078245716106979
-1.418310926928135
-1.423263409994408
-1.422326513820468
-1.4151751002495025
-1.40152703435782
-1.3811576861873445
-1.3539160375581305
-1.3197418974798891
-1.278683452702977
-1.230914080768838
-1.1767470658711032
-1.1166466306304814
-1.0512335864525832
-0.9812839687978505
-0.9077193059261482
-0.8315876868392977
-0.7540355217140279
-0.6762707562952999
-0.5995192039156798
-0.5249764731784966
-0.45375858713507616
-0.3868547390588762
-0.3250856833349411
-0.2690710226323687
-0.21920813784084453
-0.17566471888711202
-0.13838579182950592
-0.10711482870633794
-0.08142707283799705
-0.06077181248716208
-0.04451926232982515
-0.03200723407190653
-0.022583057816447785
-0.015637231631285022
-0.010626805527087143
-0.00708818994239268
-0.004640541132966317
-0.002981832737338654
-0.0018800230208320036
-0.001161219403023109
-0.0006946532904517403
-0.00036680639181131257
-1.561081188423589e-05
-1.0110645358713354e-08
-1.4020734984217357e-06
-6.444357064075225e-06
-2.066794532938337e-05
-5.503030249129876e-05
-0.00012902747895406004
-0.00027441232635833313
-0.0005391604024546344
-0.0009912031820868918
-0.0017214002943280314
-0.0028452676492292718
-0.0045031079868568654
-0.00685837786842006
-0.01009433384271425
-0.014409193482820768
-0.020010194784475813
-0.027107022926085397
-0.0359050928612207
-0.04659913731789998
-0.05936746780535623
-0.07436716973485966
-0.09173037971206821
-0.1115616881004288
-0.13393662301685844
-0.15890110801127647
-0.18647174555454502
-0.2166367597556773
-0.24935743024506918
-0.28456985999001133
-0.3221869382151512
-0.3621003815713153
-0.40418275920461566
-0.44828942841697
-0.4942603260733835
-0.5419215764001102
-0.5910868884186709
-0.6415587263506062
-0.6931292444133484
-0.7455809840327602
-0.7986873370952582
-0.8522127838424475
-0.9059129186772856
-0.9595342817335074
-1.0128140187411023
-1.065479396660676
-1.1172472079281293
-1.1678231021522665
-1.2169008910040895
-1.2641618801628767
-1.3092742919543259
-1.3518928542082425
-1.3916586453801734
-1.4281993035698244
-1.46112972798546
-1.4900534255100497
-1.5145646815124982
-1.5342517610834452
-1.5487013712128437
-1.5575046310272946
-1.5602647989812113
-1.5566069837163332
-1.5461900084383315
-1.5287204958546197
-1.5039690820530116
-1.4717884472858302
-1.432132570999428
-1.3850762903023301
-1.3308338924801595
-1.2697751462602127
-1.202436931028205
-1.1295285245489466
-1.0519287220402957
-0.9706733289944637
-0.8869322085930081
-0.8019759358849994
-0.7171331281126994
-0.6337405565766282
-0.5530890573765893
-0.47636891863827024
-0.4046187441519944
-0.3386817429862702
-0.2791729793005117
-0.2264603656542216
-0.1806611314552225
-0.1416541894246262
-0.10910733446136484
-0.08251668325535769
-0.061254416511560564
-0.04461997806143617
-0.03188964313566293
-0.022359896207681387
-0.01538127873321834
-0.010381020137658256
-0.006874482830028771
-0.004466857812351879
-0.002847316442503548
-0.0017775329544150022
-0.0010737613113461384
-0.0005706664608026802
-2.417768440703998e-05
-3.0904530458542042e-09
-4.1069486381490207e-07
-2.678974289429086e-06
-1.1285220427027845e-05
-3.645381847702992e-05
-9.792659374564714e-05
-0.00022944838405743588
-0.00048346797651076045
-0.0009354173493085494
-0.0016869115994641386
-0.0028673148431104982
-0.004633319015354241
-0.007166438128390273
-0.0106685789318151
-0.015356065017535551
-0.021452635060665637
-0.029181995198247757
-0.038760485487164466
-0.05039033811617291
-0.06425388395487894
-0.08050892806372639
-0.09928538429318004
-0.12068314841592934
-0.1447711061308401
-0.17158711865378495
-0.20113880198138653
-0.23340491112481213
-0.2683371514250828
-0.3058622593838082
-0.34588422010750486
-0.38828651360844013
-0.4329343053277784
-0.4796765160443134
-0.5283477224295844
-0.5787698521625824
-0.6307536473352157
-0.6840998776115517
-0.7386002909816218
-0.7940382955985563
-0.8501893715796723
-0.9068212171065047
-0.9636936388569834
-1.0205582028204516
-1.07715766788924
-1.1332252312629505
-1.188483621621244
-1.2426440832320187
-1.2954053017473
-1.3464523305777318
-1.3954555857272675
-1.4420699872440448
-1.4859343375592078
-1.5266710415878089
-1.5638862911957967
-1.5971708579684107
-1.6261016632010474
-1.6502443219476053
-1.669156886847895
-1.6823950436222441
-1.6895190276598975
-1.6901025316017815
-1.683743846303125
-1.6700794092697098
-1.648799812372795
-1.6196681331136291
-1.5825401950389302
-1.537386036703723
-1.4843114922034
-1.4235783942863802
-1.3556215562247882
-1.281060439258389
-1.2007033442719244
-1.1155421489367823
-1.0267360903429408
-0.9355838714800693
-0.8434843961967292
-0.7518876037914491
-0.6622380315151649
-0.5759147172390751
-0.49417172138488885
-0.4180838008045974
-0.3485015713197437