# vtk DataFile Version 4.1 
COMMENT
ASCII
DATASET STRUCTURED_POINTS 
DIMENSIONS 100 100 1 
ORIGIN 0 0 0
SPACING 0.12693303650867893 0.12693303650867893 0 
POINT_DATA 10000
SCALARS U double 1
LOOKUP_TABLE default
0.0
0.0
0.0
0.0
0.0
0.0
0.0
0.0
0.0
0.0
0.0
0.0
0.0
0.0
0.0
0.0
0.0
0.0
0.0
0.0
0.0
0.0
0.0
0.0
0.0
0.0
0.0
0.0
0.0
0.0
0.0
0.0
0.0
0.0
0.0
0.0
0.0
0.0
0.0
0.0
0.0
0.0
0.0
0.0
0.0
0.0
0.0
0.0
0.0
0.0
0.0
0.0
0.0
0.0
0.0
0.0
0.0
0.0
0.0
0.0
0.0
0.0
0.0
0.0
0.0
0.0
0.0
0.0
0.0
0.0
0.0
0.0
0.0
0.0
0.0
0.0
0.0
0.0
0.0
0.0
0.0
0.0
0.0
0.0
0.0
0.0
0.0
0.0
0.0
0.0
0.0
0.0
0.0
0.0
0.0
0.0
0.0
0.0
0.0
0.0
-1.7573974550878434e-13
8.619777177617293e-11
9.806747525812352e-10
5.6851408195337415e-09
2.3631917388749685e-08
7.95183175291147e-08
2.2996861117474904e-07
5.920074311831061e-07
1.3878077000693975e-06
3.0100136779246118e-06
6.110913622811878e-06
1.1716748022732708e-05
2.1365560628931546e-05
3.726348731862782e-05
6.245064681030379e-05
0.00010096435793900506
0.00015798478233728877
0.0002399467230417681
0.000354601490002334
0.0005110145638873905
0.0007194881290164094
0.0009914020944438743
0.001338972530226458
0.0017749319934113107
0.0023121414848416796
0.0029631483065800782
0.003739707534837828
0.004652286977193101
0.0057095762821195335
0.006918020381676067
0.008281395848667416
0.009800446283919417
0.011472589800312499
0.013291708324144128
0.015248025053777614
0.01732807321959438
0.01951475644232327
0.02178749859408432
0.02412247917583027
0.026492948832939674
0.028869618691671012
0.031221116634654912
0.033514503342700334
0.03571584079897228
0.03779080586158174
0.03970534134652162
0.04142633671965084
0.04292232988609699
0.04416422062361944
0.04512598489833021
0.04578537762607849
0.046124609435975815
0.04613098072227991
0.04579745383036463
0.04512314171806208
0.04411368897528742
0.04278151879144595
0.04114591749600913
0.03923292695540217
0.03707501493962591
0.034710495528847855
0.03218267715365469
0.02953872677776083
0.02682825683489166
0.024101667804084563
0.021408312867076007
0.018794588218920858
0.016302086395568197
0.01396597118933398
0.01181373202281953
0.009864446990310116
0.008128627661051411
0.0066086439277069815
0.005299649455571717
0.004190866075060324
0.003267053631286682
0.0025099961426069744
0.0018998701096801488
0.0014164120483050203
0.0010398525790852747
0.0007516205995695158
0.0005348386501158512
0.0003746335740233573
0.00025828356018799895
0.00017522143339471368
0.0001169178124392583
7.667459024144755e-05
4.9364543854697934e-05
3.115291880689955e-05
1.9230659307022108e-05
1.1578696265367557e-05
6.771887007231144e-06
3.822787441668952e-06
2.0606718659290833e-06
1.0396585198040587e-06
4.701653118630457e-07
1.6901552783327016e-07
2.4769920136091437e-08
-2.3882885331625273e-08
-1.0419370644411538e-09
-3.5316142550989687e-13
2.940752115026393e-10
2.6822564127441036e-09
1.3664614043619306e-08
5.163132544784641e-08
1.6070580538077545e-07
4.345368391907607e-07
1.053463359711457e-06
2.337910172126006e-06
4.819465832972667e-06
9.328869765180086e-06
1.7097311474360348e-05
2.9864409041223816e-05
4.998348176503835e-05
8.05127690461021e-05
0.00012528049009681504
0.00018891232796026171
0.0002768120744339857
0.0003950895804467787
0.0005504344212720224
0.0007499382915867117
0.0010008735433170983
0.0013104389723306816
0.0016854865697420519
0.002132244261090056
0.002656049615176132
0.003261108225048876
0.003950288181329064
0.004724959085914502
0.005584880735387163
0.006528143268220554
0.007551157501220909
0.008648691593036
0.00981394820271801
0.011038675019582958
0.012313300920515425
0.013627090003672482
0.014968306258719066
0.01632438254906045
0.017682088780974412
0.019027695502799306
0.02034713061080786
0.021626128248598275
0.0228503703008127
0.024005622040625462
0.025077864445609842
0.026053426408378193
0.02691912050358341
0.027662386105902576
0.028271443470827117
0.028735461897222227
0.029044744322009906
0.02919092972230742
0.029167213619478143
0.028968585900568
0.028592084156542862
0.028037059712067405
0.02730545218195443
0.02640206611881491
0.025334839216396184
0.024115084642954376
0.02275767985245414
0.021281161226666526
0.019707670546711534
0.018062690192991677
0.01637450547309987
0.01467335098246689
0.012990237098230918
0.011355510458066492
0.009797268625923311
0.008339807004163154
0.007002305440275325
0.005797947161647943
0.0047335996431517695
0.0038100877410266612
0.0030229799739979165
0.0023637209051573325
0.001820901507421447
0.0013814739005758535
0.0010317756851926476
0.0007583065388027324
0.0005482672884566539
0.00038991014536740104
0.000272754789019277
0.00018770915945825377
0.00012711277220391564
8.470742514009864e-05
5.553982595651709e-05
3.580895708457668e-05
2.268009247872324e-05
1.4090993871713809e-05
8.572175170392814e-06
5.094651812975387e-06
2.949407901566454e-06
1.6561479713896692e-06
8.958431977407566e-07
4.6136474660495925e-07
2.214376296784061e-07
9.258379145275645e-08
4.003976976154146e-09
-3.6404287539101614e-13
9.347537868307026e-10
7.491657725024065e-09
3.5268808132747534e-08
1.2586448471211924e-07
3.7462398663180326e-07
9.765547087092562e-07
2.295841380601504e-06
4.963198689569446e-06
1.0002863628408562e-05
1.8987487153337238e-05
3.4214919184825586e-05
5.889647317745199e-05
9.734237720312063e-05
0.00015512740203340558
0.00023921858276893809
0.0003580477603769338
0.0005215143314003351
0.0007409078209748694
0.0010287452038224081
0.0013985236990875622
0.0018643954516370648
0.002440775546857567
0.0031418987793043847
0.003981343260799621
0.004971540230276196
0.006123289383505507
0.007445297857887607
0.008943758941080989
0.010621983910042043
0.012480097433403893
0.014514803939280672
0.016719229469531947
0.01908284096212699
0.021591442721939223
0.024227248103167245
0.026969023137687176
0.029792297974636107
0.03266964149601001
0.035570994274774684
0.03846405507123941
0.04131471624158925
0.04408754367957226
0.04674629714820887
0.049254487002465513
0.05157596327433412
0.05367553280478851
0.05551959947673922
0.057076821543826095
0.0583187784833529
0.05922063767072618
0.059761808465363664
0.05992656808314842
0.05970464010431407
0.0590917029998148
0.05808980323207772
0.05670764606522508
0.05496073805812115
0.05287135902629007
0.050468348288209015
0.04778669965192447
0.04486697014502821
0.04175451624978664
0.038498575371433946
0.0351512074235514
0.031766102337309685
0.028397248374482733
0.025097451395860358
0.021916706179696408
0.018900454129895366
0.01608781609332626
0.013509952353427853
0.011188752150730862
0.009136067037630664
0.007353658098008687
0.005833926189086359
0.004561358414479757
0.00351449129448091
0.0026681028134792604
0.001995329129190199
0.0014694591058559106
0.0010652667503034555
0.0007598588750162136
0.0005331059023537351
0.0003677674614608408
0.0002494229840359856
0.00016628876513800274
0.0001089691759517684
7.016653911896008e-05
4.4365806705779264e-05
2.751157197928819e-05
1.6697907974699634e-05
9.890337972997689e-06
5.6929462696188755e-06
3.164886901012563e-06
1.6828766403680601e-06
8.418308306657718e-07
3.844832003060003e-07
1.4896499560654327e-07
6.556056828943343e-09
1.1078365398000775e-12
2.6749843453654827e-09
1.9199599115925446e-08
8.384192613259941e-08
2.821804282952526e-07
7.997801967695517e-07
1.9979287918820255e-06
4.5215343506048265e-06
9.44108465693682e-06
1.8425870632738826e-05
3.3940059129161254e-05
5.944751740916934e-05
9.960653083449708e-05
0.00016043262736257507
0.00024940727879066925
0.00037551255171589264
0.0005491766584583136
0.0007821222425519348
0.001087117273440056
0.001477636636774404
0.0019674499331660466
0.0025701568464975427
0.003298695178664151
0.004164848037441266
0.005178775767658507
0.006348595337644267
0.007680025509453111
0.0091761107981573
0.010837031538238971
0.01266000184537921
0.014639252312051093
0.016766090204553642
0.019029026908856855
0.02141396045667713
0.02390440010825371
0.026481720059583082
0.02912543021977035
0.031813453488533254
0.03452240087407063
0.0372278379608889
0.039904538522349445
0.04252672335743359
0.04506828462618187
0.047502997997325304
0.04980472675568941
0.05194762360599479
0.053906337213648646
0.05565623149210296
0.05717362621044033
0.05843606755466053
0.05942263669547947
0.060114303019472216
0.06049432626467292
0.06054870815999657
0.06026668914699532
0.05964127935054433
0.058669805406628174
0.05735444666891785
0.05570272675951175
0.053727920837978685
0.051449336879763025
0.048892431832443156
0.046088730881256715
0.0430755287808941
0.03989536330757555
0.03659525863189462
0.033225738120787766
0.029839602297891565
0.026490463762805373
0.023231036424451967
0.02011120195429773
0.017175927444559286
0.014463179408348953
0.012002051386074077
0.0098113665057502
0.007899003900985151
0.006262114668618622
0.0048882494627424155
0.0037572517295355002
0.002843628015810597
0.002119034479005132
0.0015545374102438406
0.0011224033240493359
0.0007973124111946087
0.0005570202803180655
0.00038258025886168576
0.00025826894385429857
0.00017134166643144674
0.00011170578986646507
7.156155873517687e-05
4.503571797520174e-05
2.782347271692331e-05
1.6853147776720334e-05
9.987645731270461e-06
5.7734083909423875e-06
3.241184371964404e-06
1.7558677513768956e-06
9.064555823676664e-07
4.1676452743793376e-07
1.8178688560629065e-08
8.511531317269307e-12
7.0390742728254475e-09
4.6113362151520046e-08
1.8867388480303407e-07
6.030490444739761e-07
1.6368224010574705e-06
3.9384382877189064e-06
8.621988679992743e-06
1.7473619551839668e-05
3.3191138651199565e-05
5.964127092841687e-05
0.00010211284327525202
0.00016754015387029396
0.00026466972885049556
0.0004041459264722902
0.0005984961997254605
0.0008620045658014087
0.0012104709117012956
0.0016608630114677257
0.0022308764316786595
0.0029384239799277734
0.0038010804621621997
0.004835510080785772
0.006056902982547327
0.007478444667260168
0.009110837766653926
0.01096189072327208
0.013036182734587872
0.015334809471360249
0.017855209890616733
0.020591071155977744
0.0235323063297969
0.026665098080810565
0.0299720010467414
0.03343209554607367
0.03702118587175644
0.04071203725154756
0.044474646575070324
0.04827654304520414
0.052083115921270025
0.0558579674230877
0.05956328962238518
0.06316026474336102
0.06660948872096227
0.0698714181221239
0.0729068406199357
0.07567736911686737
0.07814595932663634
0.08027745012132027
0.08203912519649484
0.08340129355641815
0.08433788491446864
0.08482705426761254
0.08485178754964548
0.0844004973004264
0.08346759362523536
0.08205401134040252
0.08016766923789986
0.07782383225064154
0.07504534275037594
0.07186268449371325
0.06831384340483777
0.06444393493397384
0.060304578905649324
0.05595301878720791
0.05145100033627336
0.04686344002694987
0.0422569215995042
0.03769805682828927
0.03325173633379889
0.028979286235374064
0.024936549138794287
0.021171934684930355
0.017724538371318068
0.014622495923762985
0.011881798052015459
0.009505804506665943
0.007485642378801231
0.0058015491813027545
0.004425052812077624
0.0033217167397481943
0.0024540724934567324
0.0017843476479178274
0.0012766778436305373
0.0008986345836424998
0.0006220565503497191
0.0004232939823920986
0.00028303710448809275
0.000185901386916146
0.00011990520159919257
7.592610132024205e-05
4.718088199142954e-05
2.874993908207869e-05
1.7155813966110928e-05
1.0002220905617485e-05
5.677176754785981e-06
3.1193880900499554e-06
1.6395504762890475e-06
7.686351712099912e-07
3.356128752803537e-08
3.4345153645122305e-11
1.7208349637346612e-08
1.0419568820284975e-07
4.0203336993092277e-07
1.2251410777379052e-06
3.1926688223798178e-06
7.411821849409432e-06
1.571263171406119e-05
3.092503033512263e-05
5.717984306561763e-05
0.00010020714050485017
0.0001675998874301146
0.00026900919198351785
0.0004162402122954221
0.000623224686275864
0.0009058561955310654
0.0012816862607998069
0.001769491596888352
0.002388733811675905
0.003158941306480114
0.0040990483656234734
0.005226728151380788
0.006557754745007726
0.008105425049998732
0.0098800650768034
0.011888637719396022
0.014134461437652599
0.016617041975508798
0.01933201289765344
0.022271175648501947
0.025422626175494255
0.028770952910347578
0.03229748994853479
0.035980609417504604
0.039796038050763455
0.04371718465535199
0.04771546725877111
0.051760631062988956
0.05582105077000119
0.05986401326579799
0.0638559789825754
0.06776282245653276
0.07155005463588636
0.07518303135930092
0.07862715411208546
0.0818480706660698
0.08481188449726228
0.08748538291215285
0.08983629453151978
0.09183358708073903
0.09344781618371094
0.09465153488466516
0.09541977172951058
0.09573058220853875
0.09556567397752805
0.0949111003458852
0.09375800893267985
0.09210342316886637
0.08995102373027761
0.08731188565540375
0.08420511598280571
0.0806583279916271
0.07670788384690579
0.07239884013660842
0.06778454241522187
0.06292583589005862
0.05788988777673764
0.052748647794566804
0.047577000092635394
0.04245067644418237
0.037444004460821835
0.0326275598840653
0.028065789070032203
0.02381467931208721
0.019919588466110638
0.016413396958961452
0.013315194840732998
0.010629733855394376
0.008347831652807329
0.0064478021760828565
0.004897820861179556
0.003658959503605413
0.0026884980647220607
0.0019430821289326706
0.0013813575864563743
0.0009658550744569562
0.0006640674373376784
0.0004488116805241829
0.000298056873139334
0.00019442248401819385
0.00012452305796712668
7.828203051261811e-05
4.828476622730813e-05
2.920272933951915e-05
1.729937964010673e-05
1.0018827276224114e-05
5.6532658207181415e-06
3.0766447003403864e-06
1.4985738405115475e-06
6.516876359153634e-08
1.0927964930943857e-10
3.9391260878632704e-08
2.225693254121888e-07
8.143015483186192e-07
2.3746648436054066e-06
5.9579276198111786e-06
1.3374807630382104e-05
2.750952339370772e-05
5.267147986499606e-05
9.49509568065158e-05
0.00016254088591771343
0.0002659843209267372
0.00041831025219605166
0.0006350287076098179
0.0009339684136541298
0.001334954834169552
0.0018593410821090286
0.002529417073155993
0.0033677318668961075
0.0043963695575016766
0.005636220140377679
0.0071062838996909655
0.008823041878748068
0.010799916998309105
0.013046841514909731
0.015569937791274305
0.018371311596322774
0.021448950905388113
0.024796718699892684
0.028404425595786303
0.03225796710061675
0.0363395106264797
0.04062771872569085
0.045097997014774925
0.049722757587680584
0.05447169112352416
0.05931204316688676
0.06420889206679932
0.06912542773269417
0.07402323168125084
0.07886255982501646
0.08360263013553752
0.088201917758627
0.09261846043070394
0.09681017720403176
0.10073520358843754
0.10435224629839068
0.10762096088105946
0.11050235559571785
0.11295922499361324
0.11495661665333325
0.11646233436340622
0.11744748056914767
0.11788703992246384
0.11776050405017649
0.11705253490695952
0.11575366000318266
0.11386098711864039
0.11137891864582825
0.10831983646858243
0.1047047176471437
0.10056363006416097
0.09593604720940427
0.09087091481013782
0.08542640192318902
0.07966927813340748
0.07367387821180411
0.0675206451690425
0.061294278156711506
0.055081546409659905
0.04896885686152031
0.04303967612533173
0.037371907845887786
0.03203532156690523
0.027089131159975546
0.022579839468251147
0.018539501288800227
0.014984594828150132
0.011915705985557948
0.009318192608306823
0.007163893340999945
0.005413789554178295
0.004021357434433438
0.0029362132745520742
0.0021076040064921934
0.001487345864387138
0.0010319501306671392
0.0007038515139665645
0.0004718183088950494
0.00031073296782772175
0.00020097146875947553
0.00012759003001450191
7.947384509414893e-05
4.854167789942139e-05
2.9050721547185337e-05
1.7014348786798536e-05
9.72746632062695e-06
5.377128060953543e-06
2.659745818251965e-06
1.1538475828974584e-07
3.01001414265554e-10
8.492442281538324e-08
4.5109040045769734e-07
1.571895766637301e-06
4.400140498024564e-06
1.0653191301393944e-05
2.3167290736480765e-05
4.6299662083664727e-05
8.634340953532538e-05
0.000151910349954684
0.00025423291159303854
0.00040733919083393323
0.0006280649274431353
0.0009358810754643197
0.0013525334927724784
0.001901509388473272
0.0026073610692317092
0.0034949293116147326
0.004588515275418819
0.005911051049246882
0.007483315229512791
0.009323232465884738
0.011445286032113883
0.013860061609644833
0.016573929849934155
0.019588865869935725
0.022902396251638427
0.026507658643911126
0.030393555702276746
0.03454498363939509
0.038943115757505996
0.04356572260113189
0.048387512415926495
0.053380478084997386
0.0585142393626539
0.06375637183827229
0.06907271651277587
0.07442766609143528
0.07978442607106702
0.08510525044186515
0.0903516533682391
0.09548459960192633
0.10046467765714015
0.10525226097840008
0.10980766348323874
0.11409129697676505
0.11806383900904127
0.12168642075586214
0.1249208454023205
0.1277298482229756
0.13007740997747175
0.13192913523512564
0.13325270662639638
0.13401842457398183
0.13419983952770453
0.13377447983885996
0.13272467288443543
0.1310384496478307
0.12871051352659052
0.1257432426791135
0.12214768202079568
0.11794446672403604
0.11316460502584294
0.10785003627427273
0.10205387316275821
0.09584023823011564
0.08928361704480828
0.08246767596959302
0.07548353048963273
0.06842749683354944
0.06139840771359316
0.054494613464207184
0.04781081518789972
0.04143488436599203
0.035444818568064036
0.02990597592722381
0.024868732746073575
0.020366722525873363
0.016415831666934385
0.013014125857525172
0.010142837241304735
0.007768441809567256
0.005845707547417114
0.004321430284374149
0.0031384447304462224
0.0022394473979931943
0.00157021680734182
0.0010819516907369028
0.0007326283900893919
0.00048745154828145785
0.00031859420484757684
0.00020447487030424608
0.00012880633177576837
7.95974614244157e-05
4.822288582128777e-05
2.8616624877393084e-05
1.6601979812810455e-05
9.32867955284513e-06
4.685044853625087e-06
2.0250198233712132e-07
7.45996663406095e-10
1.732343836923662e-07
8.701579091901287e-07
2.8988517639565293e-06
7.810173339398031e-06
1.8285036309888742e-05
3.8586018071551105e-05
7.503504691824182e-05
0.00013646539151017568
0.00023459001726247743
0.0003842308532989214
0.0006033645076987609
0.0009129577161178836
0.0013365873852111561
0.0018998620906602924
0.0026296811148679477
0.003553381130473591
0.004697828102979937
0.006088512691553155
0.007748702151003828
0.009698691950195567
0.01195518783247158
0.014530835671734724
0.017433903796256013
0.02066811162827353
0.02423259022250045
0.02812195483836976
0.03232646694055382
0.03683226262143336
0.0416216258605021
0.04667328771216429
0.05196273590493103
0.057462522979427076
0.06314256463209156
0.0689704231191192
0.07491157326722259
0.08092965077682775
0.08698668409803524
0.0930433122643061
0.09905899176490851
0.10499219591892414
0.11080061037735253
0.11644132841687026
0.12187104968155554
0.12704628604896195
0.13192357840437888
0.13645972834959025
0.14061204928362275
0.14433864188898143
0.14759869983039
0.15035285238441465
0.15256355168389346
0.15419551313981683
0.15521621818326653
0.15559648845823756
0.15531113961589865
0.1543397204620359
0.15266733889827355
0.15028556939118207
0.1471934272140955
0.14339838226140753
0.1389173700301619
0.1337777401486947
0.12801806510462937
0.12168871598126903
0.11485210135612116
0.10758246398374177
0.09996514134800645
0.09209522327880418
0.08407558261060005
0.07601430956386643
0.06802163947292064
0.06020651652546482
0.05267297384358388
0.04551652749957433
0.03882078093001744
0.032654425124903734
0.027068809265540422
0.02209625148339477
0.01774925476320582
0.014020772466111412
0.010885611447542904
0.008302956610564913
0.006219856792493661
0.004575358561413585
0.003304856338626449
0.0023441854636065316
0.0016330389665222848
0.001117427105939552
0.0007510819035967246
0.000495885947276327
0.00032153244358395464
0.00020468070485382786
0.00012786198013467904
7.83366866991774e-05
4.703252792607476e-05
2.7621836617445137e-05
1.5716703078640795e-05
7.97572455796146e-06
3.435279368580747e-07
1.698086685531174e-09
3.35586265195803e-07
1.6017712905239592e-06
5.117805229343225e-06
1.3302486064797948e-05
3.0171486738005047e-05
6.187806968858148e-05
0.00011723948493049837
0.00020818113301367307
0.0003500317186451124
0.0005616144726536805
0.0008651000811241441
0.0012856126460733602
0.0018506065269289383
0.002589055214866909
0.0035305103758346014
0.004704098156102814
0.006137520540015174
0.007856123005848722
0.009882077826773783
0.012233717391688596
0.014925036125964831
0.017965364870532078
0.021359209280756807
0.02510623468422638
0.02920137408544601
0.033635033385320444
0.0383933678639229
0.043458605882369536
0.04880939889918254
0.05442118064336617
0.060266522138763164
0.06631547287501946
0.07253588155387569
0.07889369241128162
0.08535321512510052
0.09187736782726047
0.09842789384594211
0.1049655536185419
0.11145029384697566
0.11784139650663779
0.12409761084305045
0.13017727204930954
0.13603841094713146
0.14163885971247253
0.14693635949822562
0.15188867670606065
0.156453735633383
0.1605897762474371
0.1642555468838693
0.16741054268276986
0.1700153014885315
0.17203176964291653
0.173423750437026
0.1741574477382766
0.17420211617944034
0.17353082691541424
0.17212135387606362
0.16995717918506537
0.16702860750649368
0.16333396716479276
0.15888086084695824
0.1536874108469039
0.14778342408834744
0.141211382339525
0.13402714587329956
0.1263002480628539
0.11811365841253302
0.10956290655614745
0.10075449270086494
0.0918035608919502
0.08283087628051146
0.0739592179414668
0.06530936345349406
0.056995889340699636
0.04912303556082877
0.04178088238460245
0.035042070951543144
0.0289592742264229
0.02356359947666369
0.018864074555332976
0.014848326671838009
0.011484488956759754
0.00872425903705122
0.006506893900056963
0.004763784879297435
0.0034231557761233745
0.0024144021829379824
0.0016716569487257664
0.0011363123964081027
0.0007584161185623788
0.0004970350117837161
0.00031981020292877845
0.00020198299627686086
0.00012516212897118416
7.604507787769977e-05
4.522077355664613e-05
2.6055860715303728e-05
1.3355499840395062e-05
5.729903902609473e-07
3.5949782340437643e-09
6.192166891855899e-07
2.819836242890109e-06
8.664949188700273e-06
2.1774206528195006e-05
4.7926186110402326e-05
9.566271641034463e-05
0.00017681877882651844
0.0003068985380064917
0.0005052300654687153
0.0007948545525012193
0.001202135966991892
0.0017561088658027
0.00248761027549953
0.0034282622183407557
0.004609382364188992
0.006060901091662003
0.0078103552178972685
0.009882014178655888
0.012296176374977595
0.015068654552810054
0.018210451775900187
0.021727615408771647
0.025621246395625345
0.029887635158227187
0.034518493262491484
0.03950125089964756
0.04481939331929222
0.05045281376280691
0.05637816540715182
0.06256919973771434
0.06899708320732408
0.07563068776498669
0.0824368537574526
0.08938062583433556
0.09642546391015681
0.10353343208047157
0.11066536879317874
0.11778104167427035
0.12483929031791091
0.1317981601716593
0.1386150304559828
0.14524673891200773
0.15164970611782677
0.15778006218735025
0.16359377889696458
0.16904681070178282
0.17409524873107365
0.1786954927142926
0.1828044469002584
0.18637974739204669
0.18938002990135142
0.19176524865749592
0.19349705895465458
0.1945392773695321
0.19485843471085829
0.19442443683451627
0.19321134701830006
0.19119829998377205
0.1883705511761271
0.1847206549036247
0.18024975090864936
0.17496892076337875
0.16890055360551287
0.16207963642828987
0.15455485973150906
0.14638940830624306
0.13766129381075518
0.12846308575670426
0.11890091540939543
0.10909266606449107
0.09916532305730857
0.08925153299987039
0.07948550469201152
0.06999846122103608
0.06091391116988064
0.05234303769766993
0.044380505544594925
0.03710096291321423
0.030556476740710017
0.02477509339816215
0.019760662917610108
0.015493996481894494
0.011935334499874821
0.009027982787678225
0.006702838165277053
0.004883399157232483
0.0034907781370436173
0.0024482284651161225
0.001684784628492753
0.0011377692320164875
0.0007541097814461191
0.0004905838478170598
0.0003132347254838973
0.00019625203956770445
0.00012059453798764196
7.255389188745795e-05
4.228852585506915e-05
2.1866190193301453e-05
9.343503367004495e-07
7.138225535454086e-09
1.09094262434059e-06
4.756167936668721e-06
1.4090210953915683e-05
3.429625397525423e-05
7.337134486470086e-05
0.00014272975356031576
0.00025767471499524134
0.0004376362425725943
0.0007061179673727896
0.0010903306231087363
0.0016205273531998657
0.0023290899875852387
0.003249440709465914
0.004414867169452822
0.005857350553086017
0.0076064768779092575
0.009688494804495688
0.01212556203288397
0.014935200370466644
0.01812995962691603
0.02171727453176351
0.02569948782069192
0.030074006573064135
0.03483355723386355
0.03996650655379785
0.04545721981506594
0.05128643309927341
0.05743162208716867
0.06386735527872947
0.07056562415419688
0.0774961464521092
0.08462664138726779
0.0919230773628611
0.09934989371352082
0.1068701984473667
0.11444594403077932
0.122038083152138
0.12960670624785844
0.1371111624751812
0.14451016583435905
0.1517618883103298
0.1588240422290175
0.1656539544984833
0.17220863601386588
0.1784448502287815
0.18431918571868278
0.1897881384742259
0.1948082106635344
0.1993360336974797
0.20332852463127435
0.20674308624408474
0.20953786254415835
0.2116720629026767
0.21310636941799965
0.21380344325804487
0.2137285463099048
0.21285029402923283
0.21114155332381018
0.208580494888734
0.20515180182026385
0.2008480247876584
0.1956710579532299
0.18963368904534034
0.18276115205846974
0.17509258352721208
0.1666822559859265
0.15760043920972322
0.14793372642236913
0.1377846647035245
0.1272705516427499
0.11652130708900477
0.10567639905966476
0.09488089088625953
0.08428077174816145
0.07401782067824202
0.06422432058251958
0.05501797339621852
0.046497366829067084
0.03873831132463379
0.03179131153473454
0.025680367960502926
0.020403224657456934
0.015933085492018956
0.012221710172582886
0.00920367365446941
0.006801441949123101
0.004930809659370106
0.003506190669681195
0.002445276928292535
0.0016726855518687746
0.001122381917836782
0.0007388574810124422
0.00047721140279663335
0.0003023989130051252
0.00018794684589837221
0.00011438341564416471
6.741516248077172e-05
3.514507150039575e-05
1.4953545865384306e-06
1.3372106161922906e-08
1.838719507306324e-06
7.697172325158826e-06
2.203213843030978e-05
5.203524269795084e-05
0.00010836006756915676
0.00020570327912564245
0.000363147045656816
0.0006041896078121998
0.0009564296929977519
0.0014509142544523955
0.002121199717647577
0.003002207971106846
0.004128975800549183
0.005535399361186191
0.007253065266405322
0.009310240412472656
0.011731068057078175
0.014534992134222225
0.017736408761144417
0.021344525678857102
0.02536339805638156
0.029792102704633505
0.03462501152991789
0.03985212779198542
0.04545945404340561
0.0514293672187043
0.05774098314444402
0.0643704989849701
0.07129150735718254
0.07847527984206876
0.08589102039615518
0.09350609086431179
0.1012862116318364
0.10919564066669434
0.11719733401732345
0.1252530904379735
0.13332368235819117
0.14136897499695042
0.14934803510639164
0.15721923064518822
0.16494032263521763
0.17246855054260257
0.17976071273548858
0.1867732438975394
0.19346229171554474
0.19978379571803154
0.2056935718361232
0.21114740711483898
0.21610117005728355
0.22051094337358673
0.22433318746413336
0.2275249448087802
0.23004409754228441
0.23184969279547873
0.23290235271017987
0.23316478811338975
0.2326024362334277
0.23118424295496437
0.22888360816304823
0.22567950779362123
0.22155779729812633
0.2165126874266006
0.2105483639099756
0.20368069772145303
0.19593896295849625
0.18736744707088498
0.17802680668417814
0.1679949966440793
0.15736758633338085
0.1462572823849592
0.13479250630393344
0.1231149322337384
0.1113759727409206
0.09973230203839481
0.08834061405186355
0.07735191118783846
0.06690569267967077
0.05712444730642056
0.04810884978874711
0.03993401679988115
0.03264710602879274
0.026266449461794482
0.020782306020524284
0.016159200803730525
0.012339689589784658
0.00924925418905665
0.006801912351567951
0.004906039534239038
0.003469874678230903
0.0024062345447838185
0.0016360886229831375
0.001090825311465928
0.0007132308260460361
0.0004573621732516958
0.0002875865950071494
0.00017703765873072235
0.00010546890261233702
5.540029028337939e-05
2.346699790074499e-06
2.3732959605828803e-08
2.9689666658646516e-06
1.1964950207273832e-05
3.315599886141067e-05
7.610702974406714e-05
0.00015449154123337212
0.0002865595217027969
0.0004952806268725086
0.0008081119857311414
0.0012563899743689353
0.0018743935217001805
0.00269816462519099
0.0037641944282920574
0.005108088746308659
0.006763316943442327
0.008760126544331562
0.011124678030021885
0.01387842501473733
0.017037738616746047
0.020613754126071762
0.024612404339831966
0.02903459717590658
0.033876494422942376
0.03912985222778774
0.04478239047899585
0.05081816605574968
0.05721793271620249
0.06395947732028753
0.07101792762237093
0.07836603085687828
0.08597440484657111
0.09381176461519135
0.10184512778685591
0.11004000172135396
0.11836055465649112
0.12676977234205056
0.1352296009284503
0.14370107632880708
0.15214443996414864
0.16051924074346618
0.16878442330803073
0.17689840294839992
0.1848191281386168
0.19250413227936564
0.19991057695876963
0.20699528979374576
0.21371480068661625
0.22002538111671785
0.22588309189786185
0.23124384570042847
0.23606349160909698
0.2402979301238621
0.24390326837762283
0.24683602699259355
0.2490534119521407
0.2505136670834435
0.2511765250864822
0.25100377721685047
0.24995998325455215
0.24801334356746751
0.24513675297912726
0.2413090506613595
0.236516470196836
0.2307542782012332
0.22402856774280286
0.2163581442577291
0.2077764078586221
0.1983330994752989
0.18809574346160937
0.17715059211671205
0.16560286515217376
0.15357608679583493
0.14121036085656555
0.12865949224458412
0.11608695956829526
0.10366085876201987
0.09154805778904697
0.07990790947999413
0.06888594616019057
0.05860801331263726
0.049175285375085746
0.04066054843221542
0.03310604139822726
0.026523030270820962
0.020893158206494535
0.016171473851922424
0.012290897828742499
0.009167752968001937
0.00670787508334552
0.004812759855040671
0.0033852077381260545
0.0023340113189898783
0.001577378655661412
0.0010449734957568755
0.0006786373112609568
0.00043198867287401677
0.0002690946997998663
0.00016205302092437202
8.57461359323954e-05
3.615214980437304e-06
4.002387776303321e-08
4.5969462617074165e-06