# vtk DataFile Version 4.1 
COMMENT
ASCII
DATASET STRUCTURED_POINTS 
DIMENSIONS 100 100 1 
ORIGIN 0 0 0
SPACING 0.12693303650867893 0.12693303650867893 0 
POINT_DATA 10000
SCALARS U double 1
LOOKUP_TABLE default
0.0
0.0
0.0
0.0
0.0
0.0
0.0
0.0
0.0
0.0
0.0
0.0
0.0
0.0
0.0
0.0
0.0
0.0
0.0
0.0
0.0
0.0
0.0
0.0
0.0
0.0
0.0
0.0
0.0
0.0
0.0
0.0
0.0
0.0
0.0
0.0
0.0
0.0
0.0
0.0
0.0
0.0
0.0
0.0
0.0
0.0
0.0
0.0
0.0
0.0
0.0
0.0
0.0
0.0
0.0
0.0
0.0
0.0
0.0
0.0
0.0
0.0
0.0
0.0
0.0
0.0
0.0
0.0
0.0
0.0
0.0
0.0
0.0
0.0
0.0
0.0
0.0
0.0
0.0
0.0
0.0
0.0
0.0
0.0
0.0
0.0
0.0
0.0
0.0
0.0
0.0
0.0
0.0
0.0
0.0
0.0
0.0
0.0
0.0
0.0
9.823543777228955e-13
-4.81830437441085e-10
-5.472378476141213e-09
-3.168106338901651e-08
-1.315242673533456e-07
-4.42015482069344e-07
-1.2767575962264302e-06
-3.2827633821942806e-06
-7.686278173055703e-06
-1.6650658666044752e-05
-3.3763497351582744e-05
-6.46590924642467e-05
-0.00011776651504756061
-0.00020515438926930798
-0.00034342339323081936
-0.0005545792064055925
-0.0008668049947472872
-0.0013150458852322546
-0.0019413197188211636
-0.0027946790551770743
-0.003930768149620733
-0.005410943638238119
-0.007300956438921032
-0.009669222051966487
-0.012584734220992603
-0.016114700381858235
-0.020321994711646144
-0.025262534890631697
-0.030982691694326263
-0.03751683673247694
-0.044885124092600176
-0.053091587735146904
-0.06212261979908775
-0.0719458770702143
-0.08250964514158718
-0.09374267339972372
-0.1055544797302708
-0.11783611225150625
-0.13046134663683243
-0.14328829158556375
-0.15616137142608993
-0.1689136531982069
-0.18136948525802118
-0.1933474148103647
-0.20466335211074382
-0.2151339487216456
-0.22458015554296729
-0.23283092284234722
-0.23972699879661813
-0.24512477489505036
-0.2489001159224035
-0.2509520993291172
-0.2512065740213804
-0.24961943256982858
-0.24617947428275702
-0.24091072034095823
-0.2338740271573876
-0.2251678314560884
-0.21492785203430634
-0.2033255718131013
-0.19056533464040892
-0.1768799219229364
-0.16252453412833284
-0.14776920112912284
-0.13288978881991761
-0.1181579533395639
-0.10383059941228676
-0.09013958925425974
-0.07728257320727132
-0.06541582117798393
-0.054649789880268196
-0.04504786434426202
-0.03662830768629401
-0.029369024830250015
-0.023214394554442463
-0.018083233687769085
-0.013876963208338632
-0.010487222464741064
-0.007802448799228688
-0.005713212086805202
-0.004116294324806232
-0.0029176064874995087
-0.0020340583778773657
-0.0013944879423313022
-0.0009397565103596488
-0.0006221427919453781
-0.00040421037201596925
-0.00025735539655022204
-0.000160241821850859
-9.729629735517188e-05
-5.7375812699684864e-05
-3.265894824465646e-05
-1.776296979681556e-05
-9.061302934482504e-06
-4.166667056608293e-06
-1.5470398004281423e-06
-2.47952238836565e-07
2.9721173877091873e-07
3.749222904467158e-07
1.6356710057319552e-08
1.9773566439408948e-12
-1.6465009712710497e-09
-1.500012557447343e-08
-7.633239154286068e-08
-2.880985418302935e-07
-8.957136202488874e-07
-2.4191704069621855e-06
-5.85806696056458e-06
-1.298528391412739e-05
-2.6736593878322424e-05
-5.169109756199126e-05
-9.462182542836182e-05
-0.00016507931199057673
-0.0002759561870622514
-0.0004439705982595839
-0.0006900028043383928
-0.001039223786108375
-0.001520967191765587
-0.002168315102163505
-0.0030173916930431436
-0.004106384001508776
-0.005474332660047001
-0.00715975496025348
-0.009199175957136976
-0.011625649432135354
-0.014467349259436598
-0.0177463037839017
-0.02147733259473815
-0.025667228340942608
-0.030314207888267164
-0.035407638964409224
-0.04092803199653538
-0.04684727323576534
-0.05312906517279368
-0.059729533942973846
-0.0665979608022895
-0.07367759545542961
-0.08090651247839474
-0.08821847765172068
-0.09554379803937674
-0.10281013748384031
-0.10994328728475869
-0.11686788972156774
-0.12350811939278762
-0.12978833377565008
-0.13563370971500946
-0.14097088652298742
-0.14572863882750506
-0.14983860309027477
-0.1532360807078802
-0.15586093778067558
-0.1576586170855333
-0.1585812718028291
-0.15858902359043242
-0.1576513402186269
-0.15574852056670876
-0.15287326713122537
-0.14903231697567143
-0.14424808836167322
-0.1385602777180884
-0.13202730520100303
-0.12472745383160572
-0.11675947956919248
-0.10824239969169251
-0.09931411831120585
-0.09012855428053153
-0.0808510329593862
-0.07165191070430725
-0.06269871050331317
-0.054147407735412996
-0.046133825676645604
-0.03876627223879482
-0.03212048396361853
-0.026237613732659343
-0.0211254650887529
-0.016762577437780576
-0.013104275979837036
-0.01008955997620497
-0.007647765969184536
-0.005704252229822108
-0.004184768685535326
-0.0030185464207739122
-0.002140355076057023
-0.0014918138811553562
-0.0010221594314127414
-0.0006885615758449853
-0.00045601145958666314
-0.00029680781537553576
-0.00018971675566435274
-0.00011893274714065222
-7.298890114386356e-05
-4.374348402067863e-05
-2.5520649159345327e-05
-1.443046162938404e-05
-7.854856323141712e-06
-4.0685300479536705e-06
-1.9626422547530096e-06
-8.455950916992429e-07
-2.9692164062960537e-07
-1.2537688012695882e-08
2.042476677661909e-12
-5.244234283206042e-09
-4.198595522721828e-08
-1.9744174199734224e-07
-7.038067040655146e-07
-2.0923282427830744e-06
-5.447526801641002e-06
-1.2790872643986695e-05
-2.761624695075976e-05
-5.5585737753466855e-05
-0.00010537458905326557
-0.0001896306665862513
-0.0003259899011363504
-0.0005380685343541647
-0.0008563390658202445
-0.0013187921082317992
-0.0019712920625511
-0.0028675502660535047
-0.004068663288073129
-0.005642193561927794
-0.00766080122151737
-0.010200466519473273
-0.013338368645841028
-0.01715050701298864
-0.02170916392041883
-0.027080312688767157
-0.033321073389889266
-0.04047731033927458
-0.04858145306592166
-0.05765060717837395
-0.06768500499079769
-0.07866682934512732
-0.09055942886119515
-0.10330692963961684
-0.11683423768837835
-0.13104741821867957
-0.14583443240433142
-0.16106620899541105
-0.17659802697664384
-0.1922711858482472
-0.20791494162966187
-0.22334868888032217
-0.23838437143277072
-0.2528291066834041
-0.26648800972874437
-0.27916720391056754
-0.29067700297149784
-0.3008352465428506
-0.30947076460763684
-0.3164269374579
-0.32156530515811754
-0.3247691645292431
-0.3259470724983037
-0.3250361533076411
-0.3220050854822774
-0.31685662569122397
-0.30962951488411433
-0.3003996121179521
-0.2892801175654557
-0.2764207802753038
-0.2620060359297438
-0.24625207682555186
-0.22940290669956034
-0.2117254606628376
-0.19350386368994088
-0.17503286129445184
-0.15661040482853694
-0.1385293530952231
-0.12106831244788673
-0.10448181642130021
-0.08899033950572406
-0.07477098479712077
-0.06194996373953426
-0.050598059478918204
-0.04073003209206431
-0.03230837696529448
-0.025251100228312107
-0.019442435775583432
-0.01474492599432561
-0.01101117929836895
-0.008093918679012305
-0.005853517658954385
-0.004162867940900436
-0.002909930141744197
-0.0019985697531321994
-0.0013482806411348643
-0.0008932452634172076
-0.0005809975875200701
-0.00037082892152463006
-0.00023203244314188193
-0.00014209117883091525
-8.4930755014986e-05
-4.935049379250885e-05
-2.7709339547083614e-05
-1.4892130472637174e-05
-7.537268508636471e-06
-3.4815850737202882e-06
-1.3726366607934225e-06
-3.9773816038597514e-07
-1.7547785561576224e-08
-6.230393778747976e-12
-1.50441977964166e-08
-1.0787724646290818e-07
-4.705908940884817e-07
-1.582051526367733e-06
-4.478677440204952e-06
-1.1174379139627442e-05
-2.52566726354171e-05
-5.266776085759e-05
-0.00010265310185021168
-0.00018882894145989747
-0.00033028934503228003
-0.0005526478924721049
-0.0008888943663099539
-0.0013799458909773384
-0.002074786284522602
-0.003030115646634584
-0.004309471060437179
-0.005981823861682111
-0.008119703725861883
-0.010796939595268557
-0.014086137970915694
-0.018056037583206175
-0.022768884881744642
-0.028277967717165127
-0.03462542691528698
-0.04184043994897742
-0.04993784080313806
-0.05891720859995641
-0.06876242744246155
-0.07944169348857108
-0.0909079240205862
-0.10309950804352418
-0.11594132890024632
-0.1293459861804539
-0.1432151461000241
-0.15744095559072147
-0.17190746453497754
-0.18649201189460418
-0.20106654400293086
-0.21549884624797627
-0.2296536821621795
-0.2433938460988541
-0.25658114689355455
-0.26907734994803506
-0.2807451138476098
-0.2914489647325378
-0.3010563569282837
-0.3094388714137306
-0.3164736040118159
-0.32204479195086916
-0.32604571967141754
-0.3283809312732828
-0.3289687566182003
-0.3277441299027394
-0.32466164332074915
-0.3196987354479927
-0.31285886744631813
-0.30417449578961525
-0.2937096158343468
-0.2815616348929785
-0.2678623433980854
-0.2527777898362291
-0.236506922625005
-0.21927892445883473
-0.2013492116730494
-0.18299408737428657
-0.16450402375979797
-0.1461755333247741
-0.1283016217883759
-0.11116095520957246
-0.09500615223558306
-0.08005200306851433
-0.06646481763813576
-0.054354357862124385
-0.04376975342398158
-0.03470035320722886
-0.02708167657455098
-0.02080569393716907
-0.01573386128516379
-0.011710910966232342
-0.008577483253926071
-0.006180210895316539
-0.004378631506118575
-0.0030490352767672375
-0.0020858503490406148
-0.0014013477188788773
-0.0009243666083645915
-0.0005985508822257681
-0.0003803773230498847
-0.00023712178894820757
-0.00014485649742744424
-8.656519571927469e-05
-5.04608798217717e-05
-2.8570277971316262e-05
-1.5611723304547865e-05
-8.152534918739465e-06
-3.9989483621714605e-06
-1.7257701632462184e-06
-7.50519765460953e-08
-4.8005021796716836e-11
-3.970002457826266e-08
-2.5984622290562973e-07
-1.062065661279471e-06
-3.39075983177857e-06
-9.192126519469624e-06
-2.2089225562921678e-05
-4.829285021163666e-05
-9.773679020309137e-05
-0.00018538786793692079
-0.0003326419682024576
-0.0005686841780746156
-0.000931670516078704
-0.0014695849889995016
-0.0022406404275496033
-0.003313123164917339
-0.0047646258885076335
-0.006680663888340766
-0.00915272079677439
-0.012275814629879606
-0.01614570878193747
-0.02085591281790431
-0.026494623757277454
-0.033141751206147575
-0.04086615172429919
-0.04972317257286645
-0.05975257606468892
-0.07097688645939712
-0.08340017442165351
-0.09700727140795386
-0.1117633890403438
-0.12761410687709315
-0.1444856857018366
-0.1622856617987224
-0.1809036796962806
-0.20021252550402838
-0.22006932923812747
-0.24031691157160293
-0.26078525756138166
-0.28129310659427237
-0.30164965372328156
-0.32165636254134405
-0.3411088936713452
-0.359799155812329
-0.3775174880711262
-0.39405498302031594
-0.40920595952046646
-0.4227705927411818
-0.4345577058637042
-0.444387723429503
-0.452095779919582
-0.4575349685305133
-0.46057970379154084
-0.4611291571003629
-0.45911070586965974
-0.45448331429781363
-0.4472407367094303
-0.43741440371576557
-0.42507581940582495
-0.4103382688860058
-0.39335761675858283
-0.3743319774995886
-0.35350006690611013
-0.33113810467381
-0.30755522822340475
-0.28308748213109625
-0.25809054059699255
-0.23293137429772037
-0.2079790708363546
-0.18359496920489127
-0.16012221649745714
-0.13787486774322572
-0.1171267912183702
-0.09810093072643189
-0.08095985300172556
-0.06579883114541307
-0.05264280350966299
-0.04144826098657022
-0.03211043432389554
-0.024475217370998854
-0.018354340499774423
-0.013541697498850253
-0.00982862995523218
-0.007016403726257999
-0.004924902922944588
-0.0033974396010800208
-0.0023022666235823714
-0.0015317359771345432
-0.0010000646580719656
-0.000640468536036919
-0.00040215165738742244
-0.0002474096406607352
-0.0001489679219140041
-8.761586126014859e-05
-5.01768647916116e-05
-2.7838756919121954e-05
-1.4843101523391141e-05
-7.493227186863101e-06
-3.3499247241628406e-06
-1.4617206516000494e-07
-1.9433261251222247e-10
-9.736691588186135e-08
-5.890475576473117e-07
-2.2704533763537086e-06
-6.910851065839822e-06
-1.7986725972394366e-05
-4.170059023857298e-05
-8.827898532966966e-05
-0.00017349485824398608
-0.0003203083834022712
-0.000560476040535075
-0.000935949259837232
-0.0014998775850942258
-0.0023170495795504288
-0.003463645808323746
-0.005026236598091975
-0.007100024780507287
-0.009786401208277503
-0.013189940070932164
-0.017415005409571277
-0.022562165863913505
-0.028724620551001105
-0.035984826596265
-0.044411491664285624
-0.05405705745700907
-0.06495575750001956
-0.07712228924466158
-0.09055110040596398
-0.10521625531132038
-0.12107182051174573
-0.13805269063295622
-0.156075765198021
-0.17504138410522901
-0.19483493238899807
-0.21532853246250652
-0.236382752881582
-0.25784827555206463
-0.27956747719884534
-0.30137589502534695
-0.3231035602464659
-0.34457619620875174
-0.3656162899173175
-0.3860440568882134
-0.4056783293281274
-0.4243374067234008
-0.4418399159855737
-0.4580057352669426
-0.4726570412266219
-0.48561954353712905
-0.49672397222394715
-0.5058078822619692
-0.5127178347317617
-0.5173120035889599
-0.5194632404088443
-0.5190626049899507
-0.516023336225129
-0.5102851943596147
-0.5018190526262934
-0.49063155461679764
-0.476769587081872
-0.46032425259127346
-0.44143397259839684
-0.42028632217468503
-0.3971182075882508
-0.3722140589604282
-0.3459018260962972
-0.3185467260404934
-0.2905428696924378
-0.26230305428170303
-0.23424711266371137
-0.2067892432742435
-0.18032472552802653
-0.15521641020201057
-0.13178143410434262
-0.11027878969420526
-0.09089866291615235
-0.07375472993168106
-0.058880708287321885
-0.046232231720247895
-0.0356944977521412
-0.02709521677630196
-0.02022141202222658
-0.014837887947664623
-0.010704945785533222
-0.007593256674595452
-0.0052945809518518926
-0.0036279784482859466
-0.002441993816243043
-0.0016138178363972679
-0.0010465663780554269
-0.0006656662420604608
-0.0004150428694856055
-0.0002535098946307349
-0.00015154570161925835
-8.852164973307094e-05
-5.039235796681775e-05
-2.783079820427561e-05
-1.4748591101231904e-05
-6.982321833510186e-06
-3.0340384120709144e-07
-6.205819443798276e-10
-2.236908713345784e-07
-1.2628369380833474e-06
-4.615405948191362e-06
-1.3443279628184385e-05
-3.368423382296722e-05
-7.551050935287071e-05
-0.0001550808382335305
-0.0002964681500320697
-0.0005335879448127395
-0.0009119141372640541
-0.0014897587645008052
-0.002338912848854807
-0.0035444956567137593
-0.005203931238411319
-0.007425053744862602
-0.010323424727981752
-0.014019015625995172
-0.018632458838171193
-0.02428109682743007
-0.031075060024826885
-0.03911358375087689
-0.04848173709018444
-0.05924768905819754
-0.07146058601024727
-0.08514906483731581
-0.10032038351153806
-0.11696011683510255
-0.13503234207853812
-0.15448022647741047
-0.1752269251744592
-0.19717670238248705
-0.2202161982428346
-0.24421577700530325
-0.26903090691021475
-0.2945035370057907
-0.3204634499751322
-0.34672958216177957
-0.37311131200754794
-0.3994097259729352
-0.42541887683224466
-0.45092705329520955
-0.4757180825522149
-0.4995726889424792
-0.5222699328571475
-0.5435887545168464
-0.5633096476358965
-0.581216488335595
-0.5970985450062143
-0.6107526949982945
-0.6219858737169708
-0.630617780339849
-0.6364838611578814
-0.6394385853409147
-0.639359017363272
-0.6361486737647597
-0.6297416276343016
-0.6201067905786088
-0.6072522578934457
-0.5912295482539511
-0.5721375065723707
-0.5501255729117351
-0.5253960607128446
-0.4982050476190569
-0.4688614784405147
-0.4377241283372704
-0.40519618474662045
-0.371717375290994
-0.3377537743032188
-0.30378562476166404
-0.2702936716684599
-0.23774458620387945
-0.20657606795413394
-0.17718218546273248
-0.14989952031457532
-0.12499477540342668
-0.10265469964564912
-0.08297939357638788
-0.06598014745651463
-0.05158276856310188
-0.0396367933415859
-0.02993011136154937
-0.02220756167708283
-0.01619129355544808
-0.011600374294563176
-0.008167390614429632
-0.005650540794626391
-0.003840704614204032
-0.0025639050278894356
-0.0016802034686389988
-0.0010803065993903128
-0.0006810596009501821
-0.0004207022961450788
-0.00025442296507829015
-0.00015046567041372035
-8.686726910211851e-05
-4.8800718819869886e-05
-2.6414857230208247e-05
-1.2787303818362378e-05
-5.545062865250096e-07
-1.7163410220011204e-09
-4.842312211419408e-07
-2.5698964992752453e-06
-8.945509479290035e-06
-2.5009405404249037e-05
-6.0466471045105374e-05
-0.00013129906993821928
-0.00026198538510530854
-0.00048776294575913896
-0.0008566826352743577
-0.0014311803237185851
-0.002288914902263
-0.0035226806707669154
-0.005239289611802808
-0.007557421342617276
-0.01060454014642142
-0.014513065478604197
-0.0194160443794724
-0.025442605820206344
-0.03271347768886267
-0.04133682067361275
-0.05140458644556513
-0.06298954842114998
-0.07614309012587771
-0.09089377581588337
-0.1072466757910689
-0.12518337797109377
-0.14466258908188082
-0.16562121288987988
-0.18797578784996724
-0.21162417015644636
-0.23644735811765066
-0.26231136771422486
-0.28906908516097435
-0.3165620387117099
-0.3446220477241162
-0.3730727214632817
-0.4017307929526876
-0.4304072843375454
-0.45890850985069265
-0.48703693081726845
-0.5145918844971207
-0.5413702152355472
-0.5671668426273383
-0.5917753073865518
-0.6149883414642496
-0.6365985146794128
-0.6563990156200271
-0.674184629590242
-0.6897529805208903
-0.702906106427263
-0.713452438370303
-0.7212092498913018
-0.726005636230687
-0.72768606876737
-0.7261145483284323
-0.7211793495976139
-0.7127983062636256
-0.7009245317734824
-0.6855524035326835
-0.6667235606531798
-0.6445325808239756
-0.6191319178439006
-0.5907356092501357
-0.559621219070131
-0.5261294828343949
-0.49066118892413735
-0.45367097385977345
-0.41565792710357585
-0.37715317145761024
-0.33870486650959075
-0.3008613225029054
-0.2641530656568333
-0.22907474700875402
-0.1960677601747684
-0.16550438826849498
-0.1376743001638645
-0.11277428628346063
-0.09090221735654291
-0.07205620928638434
-0.056139743757701394
-0.04297294281777012
-0.0323093664341928
-0.023856778594704878
-0.017299583650127816
-0.012320325925057279
-0.008617897124523063
-0.005920842904884366
-0.003995172635667948
-0.002647056910456849
-0.0017214972440182973
-0.0010983553695263501
-0.0006870668656054779
-0.00042106723176870846
-0.0002525852015887978
-0.00014812647549349546
-8.472592350675528e-05
-4.682803255198154e-05
-2.313767303141971e-05
-9.997236914086765e-07
-4.273317540463743e-09
-9.923019632157406e-07
-4.980026303085565e-06
-1.6571767152792102e-05
-4.4589132132841096e-05
-0.000104237508279653
-0.0002196162264143027
-0.0004263440550327905
-0.0007740027253061878
-0.0013280716293028124
-0.0021710472408212433
-0.003402509332478605
-0.005138001529321667
-0.007506718626287861
-0.01064811758224915
-0.01470767507828084
-0.01983208868458836
-0.026164254176181508
-0.033838348159163055
-0.042975308272313
-0.05367894191041513
-0.06603281944029733
-0.0800980297805727
-0.09591180386302213
-0.11348695125832167
-0.1328120107371559
-0.1538519877890123
-0.1765495401118888
-0.20082647337840492
-0.2265854209792788
-0.2537115995537689
-0.28207455378489876
-0.31152982652193945
-0.34192051179313276
-0.37307866734802836
-0.4048265792808901
-0.4369778837870911
-0.4693385603143679
-0.5017078166584334
-0.5338788904274551
-0.5656397933307518
-0.5967740255021455
-0.6270612870783946
-0.6562782139916995
-0.6841991648102542
-0.7105970858128098
-0.7352444825826576
-0.7579145284465282
-0.7783823431612168
-0.7964264793324901
-0.8118306589234908
-0.8243858074116757
-0.8338924378946231
-0.8401634405264269
-0.8430273324143345
-0.8423320173497628
-0.8379490908751638
-0.8297787013057585
-0.8177549385737554
-0.8018516678077461
-0.7820886522869132
-0.7585377218270023
-0.7313286419786433
-0.7006542352080886
-0.6667742112813578
-0.6300170994955973
-0.59077966308207
-0.5495232387396798
-0.5067665977341776
-0.463075170218003
-0.4190467904703771
-0.37529446364326463
-0.3324269653655784
-0.2910283080479269
-0.251637210697858
-0.2147277018982408
-0.1806919161675225
-0.14982607350030858
-0.12232059542372947
-0.09825528316436066
-0.07760037524639897
-0.060223998070678395
-0.04590595197303326
-0.03435697347409077
-0.02524174783165298
-0.018203264871644333
-0.01288585229286511
-0.008954502612125879
-0.006108873770747108
-0.0040913719020898055
-0.0026897294620523223
-0.0017352248144289915
-0.0010980253897590006
-0.0006810942386059085
-0.0004138012627589315
-0.000245978699444534
-0.00014276310874051688
-8.013739101490072e-05
-4.0137627344237294e-05
-1.7283442362059556e-06
-9.777524020515509e-09
-1.9321932602046415e-06
-9.214172908595333e-06
-2.9405021317074605e-05
-7.632342927561425e-05
-0.00017283604077761295
-0.00035385521750735336
-0.0006692104883490352
-0.0011860059605771011
-0.0019900905018882626
-0.0031863432909454304
-0.004897601356585771
-0.007262206182234239
-0.010430298114785028
-0.014559116931809155
-0.01980765738910522
-0.026331071199616
-0.03427520160402591
-0.043771590556583334
-0.05493322332662946
-0.06785118468351208
-0.08259230790400675
-0.09919781335830805
-0.1176828647684185
-0.1380369221788559
-0.16022474181022167
-0.1841878623933064
-0.2098464218467635
-0.2371011630973953
-0.2658355092810097
-0.2959176128359472
-0.32720230722797244
-0.35953291222430134
-0.3927428626063326
-0.42665714552369044
-0.46109354342900294
-0.49586368812935666
-0.5307739375739966
-0.5656260912579567
-0.6002179632165568
-0.6343438340866303
-0.6677948060718225
-0.7003590872049533
-0.7318222342724555
-0.7619673872818745
-0.7905755324658944
-0.8174258355183941
-0.842296091992676
-0.8649633474502308
-0.8852047458544713
-0.902798670583437
-0.9175262478672058
-0.929173286804481
-0.9375327324503394
-0.9424077074886757
-0.9436152119591172
-0.9409905371768982
-0.9343924267225034
-0.9237089812950683
-0.9088642525232083
-0.8898254013602234
-0.8666102087448272
-0.8392946215351584
-0.8080199007405656
-0.7729988220805705
-0.7345202769358574
-0.6929515565203005
-0.6487375990832327
-0.6023965640119722
-0.5545112849669033
-0.5057164473603196
-0.45668171063585083
-0.40809140469781513
-0.36062180680874867
-0.31491728494853055
-0.27156673359493877
-0.23108172597592735
-0.19387770178192848
-0.1602593594760178
-0.13041126938265538
-0.10439456014264735
-0.08215029377647654
-0.06350974643128333
-0.048211201786572434
-0.035922084418960526
-0.0262644655759886
-0.01884138964798568
-0.013261305442079995
-0.009158240189449586
-0.006206160178202597
-0.004127008257115762
-0.002692918343483028
-0.0017238421094189576
-0.0010821609899285968
-0.0006658116218005948
-0.0004011350208793186
-0.0002361869483040571
-0.00013457284801221761
-6.824873357505612e-05
-2.927439830203231e-06
-2.0820539652564132e-08
-3.5860053986825188e-06
-1.6314751521556323e-05
-5.006895520996501e-05
-0.0001256272634704506
-0.00027603770211798677
-0.0005499487697504077
-0.0010144561344593934
-0.0017570150197836875
-0.002886048034247598
-0.004530020878334191
-0.006834937501257979
-0.009960390057434468
-0.014074457563509378
-0.019347858267514496
-0.025947812978800756
-0.034032069685751766
-0.043743482679852855
-0.05520544708300123
-0.06851837946711722
-0.08375732360614098
-0.10097066055492061
-0.12017982303414898
-0.14137985972675327
-0.16454066572782927
-0.18960868819153517
-0.2165089265070295
-0.24514706870750338
-0.27541163502118937
-0.3071760310082411
-0.34030044314930535
-0.37463353675338096
-0.4100139383713146
-0.4462715021273503
-0.4832283717269199
-0.5206998579717687
-0.558495156221785
-0.596417930245917
-0.6342667891123557
-0.6718356828836074
-0.7089142414782428
-0.7452880795840306
-0.7807390892940201
-0.81504574144297
-0.8479834166468829
-0.8793247879645711
-0.9088402790655598
-0.9362986249567674
-0.9614675668308991
-0.9841147185547504
-1.0040086497340643
-1.0209202390391783
-1.0346243611727999
-1.044901980767788
-1.0515427353918143
-1.0543480958714833
-1.0531351927983716
-1.047741390099654
-1.0380296661014565
-1.0238948254269205
-1.0052705074082964
-0.9821368755129669
-0.9545287667253319
-0.9225439524133922
-0.8863510202714304
-0.8461962438848234
-0.802408682507802
-0.7554026752049736
-0.7056768906188834
-0.6538091945989598
-0.6004468213270799
-0.5462916789350746
-0.4920810609916747
-0.4385645159093402
-0.38647807315725924
-0.3365173630466985
-0.2893113429947684
-0.24539834536891766
-0.20520602100798474
-0.16903652350606163
-0.13705800897199058
-0.10930322210258182
-0.08567556401048847
-0.06596253294303756
-0.04985577017378782
-0.03697618420395608
-0.026901914209016053
-0.019196429697435603
-0.013434023726937463
-0.009220410187304557
-0.006206999553292651
-0.004098490711816855
-0.0026544145201322675
-0.0016859749133963974
-0.001049842986698284
-0.000640475258582399
-0.0003821021032445121
-0.00022062429703563827
-0.00011307932272462904
-4.831088207197754e-06
-4.161491770726211e-08
-6.359567499166417e-06
-2.7697591983823448e-05
-8.194109818334376e-05
-0.0001991174022346111
-0.0004251774974654766
-0.0008253908261269637
-0.0014867956670171294
-0.0025192459421931857
-0.0040547541301348975
-0.0062450394100569545
-0.009257410652492975
-0.013269307333045289
-0.018461958972268534
-0.025013689977902397
-0.033093390776806834
-0.042854608820890004
-0.05443060311916799
-0.06793057504242887
-0.08343715667763632
-0.10100512215844218
-0.1206611976116551
-0.1424047861859148
-0.16620939555821937
-0.19202455218231812
-0.21977800309947232
-0.24937803546347717
-0.28071577956130384
-0.3136673977022719
-0.34809609503698735
-0.3838539167854108
-0.420783318453785
-0.45871851138322195
-0.49748659608101464
-0.536908501318517
-0.5767997491616337
-0.6169710661182733
-0.6572288594725751
-0.697375576444935
-0.7372099626571167
-0.7765272358674326
-0.8151191912683713
-0.852774255869351
-0.8892775115918053
-0.9244107096050345
-0.95795230203934
-0.9896775214530936
-1.019358543263103
-1.04676477177642
-1.0716632965293837
-1.0938195724046287
-1.1129983844886924
-1.128965166778183
-1.141487752358151
-1.1503386409301424
-1.1552978764142936
-1.1561566309608866
-1.152721589431101
-1.1448202167141568
-1.1323069648258068
-1.1150704328136067
-1.0930414254849135
-1.0662017634429928
-1.03459357593244
-0.998328662736948
-0.95759735082084
-0.912676111749621
-0.8639330711218394
-0.8118304619841946
-0.7569230844538287
-0.6998519643952525
-0.6413326737342173
-0.5821381805811087
-0.5230766061706392
-0.46496481516793836
-0.408599273217234
-0.35472598684600576
-0.30401153512289986
-0.2570171905687469
-0.2141779342659149
-0.17578785057211102
-0.14199299205476634
-0.112792357547437
-0.08804711169865
-0.06749756535077876
-0.05078673368835012
-0.03748856135579065
-0.02713829164909795
-0.019262135706167072
-0.01340350608530364
-0.00914365016191847
-0.006115448724834322
-0.004010220145425392
-0.002578339110408145
-0.0016251352007920854
-0.0010037661034285094
-0.0006064869740918563
-0.0003546049642077853
-0.00018350778234212564
-7.806791606584866e-06
-7.854619560417268e-08
-1.079943003200005e-05
-4.5158219086590785e-05
-0.00012906302636664247
-0.0003042594557202807
-0.0006322750589830785
-0.00119750346049156
-0.0021088241196386692
-0.0034993633514854836
-0.005524241864297225
-0.00835641564916976
-0.012180952441529813
-0.017188257472282184
-0.023566848876741264
-0.03149628212691663
-0.04114074681684938
-0.05264373078486926
-0.06612399259088984
-0.08167292897601557
-0.09935328896265094
-0.11919908328739108
-0.14121647206019103
-0.16538538379718903
-0.19166161973598847
-0.21997922065712483
-0.2502529107393288
-0.2823804764416743
-0.31624498176584276
-0.3517167601394871
-0.38865515507349374
-0.4269100057606788
-0.46632289016111494
-0.5067281478788425
-0.5479537096772368
-0.5898217612938772
-0.632149267672504
-0.674748380969687
-0.7174267525785566
-0.7599877665297949
-0.8022307093323682
-0.8439508897713551
-0.8849397214292931
-0.9249847807096692
-0.9638698538591981
-1.0013749878610694
-1.0372765620929916
-1.0713474003528287
-1.1033569463543844
-1.1330715302497243
-1.1602547593544281
-1.184668073271587
-1.2060715122381667
-1.2242247578671408
-1.2388885174463125
-1.2498263361607997
-1.2568069351076128
-1.2596071851484907
-1.2580158350007957
-1.2518381129774958
-1.2409013108979798
-1.2250614304816796
-1.2042109211888994
-1.1782874586114793
-1.1472836004545088
-1.1112570125388919
-1.0703407849746527
-1.0247531706918036
-0.974805895324544
-0.9209100381384177
-0.8635784042254515
-0.8034233367853466
-0.7411490877712674
-0.6775381928454897
-0.6134317740521805
-0.5497042798778796
-0.4872337946969441
-0.4268696148457147
-0.3693992041394064
-0.3155168401322331
-0.2657962201875609
-0.2206690367704285
-0.1804111090055207
-0.14513713093655642
-0.11480450352621634
-0.08922606743566192
-0.06809084863631694
-0.050991196270146144
-0.03745401275729754
-0.026973283080335437
-0.019040950181954633
-0.013173454603747829
-0.00893195303595305
-0.005935224661241557
-0.003865348215977897
-0.0024671437817057984
-0.0015429065311689876
-0.0009438735469036168
-0.0005584556228008649
-0.00029151660574173945
-1.2346906575883974e-05
-1.4061715682175863e-07
-1.7589082994825944e-05
-7.079742607700868e-05
-0.00019585327979338663
-0.0004486385146415497
-0.0009085559199072505
-0.0016808611386220466
-0.0028970161808519698
-0.004712818439590541
-0.007304364215496464
-0.01086218991070367
-0.01558414832281286
-0.021667692897818454
-0.029302253124996333
-0.03866230304109744
-0.0499015789433251
-0.06314872432035809
-0.07850446062232398
-0.09604022620171995
-0.11579810791962011
-0.1377918166124888
-0.16200842713976601
-0.18841060893883188
-0.2169391039138552
-0.24751525451525472
-0.28004343655873226
-0.31441330129788636
-0.3505017745559389
-0.38817479472888716
-0.42728879551514226
-0.4676919540213795
-0.5092252320068167
-0.5517232394021482
-0.5950149468370193
-0.6389242694745644
-0.6832705393797533
-0.7278688789490708
-0.7725304842422144
-0.8170628247078224
-0.8612697648668245
-0.9049516139201796
-0.947905110789463
-0.9899233545362556
-1.0307956931915827
-1.0703075875387542
-1.1082404701633
-1.1443716240137436
-1.1784741087931252
-1.2103167678036413
-1.239664352574306
-1.2662778079848915
-1.2899147670000617
-1.3103303119105019
-1.327278068449765
-1.3405117104374191
-1.3497869654493024
-1.3548642256017538
-1.3555118801780834
-1.3515104957386348
-1.3426579704673474
-1.3287757774242674
-1.3097163796131706
-1.285371841380112
-1.2556835692838286
-1.2206529870756937
-1.1803527838834913
-1.1349381786958899
-1.0846574329618097
-1.0298606415898648
-0.9710056754518236
-0.9086600770138
-0.8434977671091135
-0.7762896389974143
-0.7078875101634383
-0.6392014573162998
-0.5711712244746112
-0.5047330835597001
-0.4407841378800255
-0.3801464909230259
-0.32353388421662366
-0.2715233136656562