# vtk DataFile Version 4.1 
COMMENT
ASCII
DATASET STRUCTURED_POINTS 
DIMENSIONS 100 100 1 
ORIGIN 0 0 0
SPACING 0.12693303650867893 0.12693303650867893 0 
POINT_DATA 10000
SCALARS U double 1
LOOKUP_TABLE default
0.0
0.0
0.0
0.0
0.0
0.0
0.0
0.0
0.0
0.0
0.0
0.0
0.0
0.0
0.0
0.0
0.0
0.0
0.0
0.0
0.0
0.0
0.0
0.0
0.0
0.0
0.0
0.0
0.0
0.0
0.0
0.0
0.0
0.0
0.0
0.0
0.0
0.0
0.0
0.0
0.0
0.0
0.0
0.0
0.0
0.0
0.0
0.0
0.0
0.0
0.0
0.0
0.0
0.0
0.0
0.0
0.0
0.0
0.0
0.0
0.0
0.0
0.0
0.0
0.0
0.0
0.0
0.0
0.0
0.0
0.0
0.0
0.0
0.0
0.0
0.0
0.0
0.0
0.0
0.0
0.0
0.0
0.0
0.0
0.0
0.0
0.0
0.0
0.0
0.0
0.0
0.0
0.0
0.0
0.0
0.0
0.0
0.0
0.0
0.0
-5.5398441163023436e-12
2.7172124178860547e-09
3.0223949569472665e-08
1.7204084667538894e-07
7.028495033089341e-07
2.3246965501245714e-06
6.607552520739017e-06
1.6712965763880778e-05
3.8482459785249264e-05
8.194943350248617e-05
0.00016328802779577638
0.00030714664502601687
0.0005492344762213006
0.0009389476852448562
0.0015417514273065483
0.002440988157860896
0.0037387725238008265
0.005555664476719562
0.008028884996649076
0.011308946711069577
0.015554703357496709
0.020926962796751155
0.027580942432502635
0.03565795893746682
0.04527682470814446
0.056525464348676724
0.06945326338781209
0.08406462059898931
0.10031410075073946
0.11810348504191971
0.13728090191859546
0.15764210160308761
0.17893382276102232
0.20085909690021908
0.22308425085070377
0.2452473032988354
0.266967408999432
0.2878549832993426
0.3075221378831018
0.3255930731321877
0.34171409957824345
0.3555629968949099
0.36685746016974646
0.375362426723094
0.3808961200019853
0.38333468829615175
0.3826153541772553
0.37873802537138246
0.3717653496326501
0.36182122603350125
0.3490878142143441
0.33380111289545317
0.3162452103936368
0.29674534330085695
0.2756599339716281
0.2533718106131337
0.23027884163889997
0.20678423361866452
0.18328674500292888
0.16017105343540783
0.137798485038074
0.11649827802761653
0.09655952526113908
0.07822393923531701
0.061679624366127686
0.047056129161230004
0.034421169099344374
0.023779519481729294
0.015074617124024433
0.008193318867841195
0.002974004239014417
-0.0007822125060960853
-0.0032979095402071975
-0.004804655098536784
-0.005528715171034178
-0.005678730625551356
-0.0054366163190609895
-0.004952362768713158
-0.004342730727024607
-0.0036932038760199397
-0.0030621596709247377
-0.002486106620830302
-0.0019849920806867304
-0.0015669053575848078
-0.0012318572733560362
-0.0009746050557075534
-0.0007866620646431821
-0.0006576926306865441
-0.0005764827222893944
-0.0005316395503078251
-0.0005121330033737525
-0.0005077545050183822
-0.0005095286938420373
-0.0005100617266884366
-0.0005037298358522917
-0.00048643467427256665
-0.00045411972977868806
-0.0003974877761642063
-0.00028468204502419696
-1.2419804817252814e-05
-1.1369708858558402e-11
9.465219985798616e-09
8.505488463506737e-08
4.271421809386099e-07
1.5906444414307616e-06
4.877530438287217e-06
1.2986772730370941e-05
3.098773651354444e-05
6.765217834811481e-05
0.0001371274570163544
0.0002608643295131262
0.00046963717971993237
0.0008054265612493181
0.0013228880231480437
0.002090119262281169
0.00318846636152243
0.004711179009465906
0.006760826947289648
0.009445512562426633
0.012874041337205828
0.017150326077742275
0.022367388052376633
0.028601368256419762
0.03590597038709825
0.04430772480480878
0.05380239572788581
0.06435276165037293
0.07588789283993336
0.08830394131062953
0.10146635818973532
0.11521336898911824
0.12936047425212718
0.14370570380259992
0.15803533718623244
0.17212980857334342
0.1857695376214701
0.19874046399254305
0.21083910756936744
0.22187702435140166
0.23168457554211025
0.2401139712573833
0.2470415882244868
0.25236959127038244
0.25602691052864013
0.2579696399675773
0.2581809284152841
0.2566704325079906
0.25347339306419386
0.24864938380098126
0.24228076598029355
0.2344708668879917
0.22534188689317594
0.21503253251621382
0.20369537488368936
0.19149394709786458
0.17859962179922095
0.16518835005397603
0.1514373888173892
0.13752218550996906
0.12361360877486388
0.10987569621559315
0.09646401815416672
0.08352462762402403
0.07119339645318576
0.059595364652218666
0.04884361525892337
0.03903719584374606
0.03025779014918381
0.022565202460288803
0.015992191032788
0.010539647435816086
0.006173402013531469
0.002823896884205172
0.00038954460905406166
-0.001256152443601697
-0.0022545185231902663
-0.0027501897490690304
-0.0028800614399085668
-0.0027644507784945153
-0.0025016351401029036
-0.00216608297491266
-0.0018098767366619575
-0.0014662769059264778
-0.0011542099842490829
-0.0008826473645625898
-0.0006542299111169602
-0.0004679060513224557
-0.00032065510932188855
-0.00020851309683025834
-0.000127132826743274
-7.205901440703684e-05
-3.884071156971064e-05
-2.306533129121438e-05
-2.0376070307453838e-05
-2.6504927306177096e-05
-3.7285156279798015e-05
-4.84455079977915e-05
-5.461017787871216e-05
-4.61173378615594e-05
-2.2959607976480557e-06
-1.2025706818183735e-11
3.086108508584838e-08
2.441285290102416e-07
1.1335854330967289e-06
3.9871276890088865e-06
1.1687649558990534e-05
2.9984647298261927e-05
6.933055216341655e-05
0.00014731455152064337
0.00029163465751758685
0.0005434372454315141
0.0009607399066167627
0.0016215589867320211
0.0026263070424092203
0.004099021642370681
0.006187041104212226
0.009058851102963407
0.012899976236747875
0.017906964062745
0.02427968449918348
0.032212324212469695
0.04188357675889513
0.053446603626426135
0.06701936428242829
0.08267588654055812
0.10043897886885096
0.12027478408846892
0.14208945144369084
0.16572807354510086
0.1909759072534877
0.21756178210290367
0.2451635026918924
0.2734149762865258
0.301914744946652
0.33023557208636584
0.3579347243139994
0.38456459751457295
0.40968335780438236
0.43286529947201646
0.45371065978269653
0.47185467140658294
0.486975674570321
0.49880215068888356
0.5071185755968657
0.5117700224287914
0.5126654709812797
0.5097798016696986
0.5031544679232721
0.49289685129256294
0.4791783092426625
0.46223092757116135
0.4423429892354354
0.4198531716012683
0.39514348842798
0.3686310063722917
0.34075839478288406
0.3119834189301499
0.2827675661981104
0.25356410369814075
0.2248059980134761
0.19689426580422933
0.170187437328704
0.14499286275850537
0.12156053094972419
0.10007987257168229
0.08067968553071526
0.06343089694388473
0.04835145613892497
0.035412360484568056
0.024543765127418928
0.015640376462220548
0.008565836937002955
0.003156427387342564
-0.0007750774596031797
-0.0034343784429470576
-0.00503867731846844
-0.0058076327444301305
-0.0059529429141300235
-0.005667943791524577
-0.005118901327208647
-0.00443943546944178
-0.0037288221631637704
-0.0030540270120389744
-0.0024545429447307555
-0.0019486769221568221
-0.0015399406769169499
-0.0012225601823875854
-0.0009856336540702891
-0.0008159354385094669
-0.0006996529068136394
-0.000623428620135059
-0.0005750153182566117
-0.0005437222336832207
-0.0005207040348213326
-0.0004990301409460966
-0.00047329311551646516
-0.00043799524003159627
-0.00038227723041767126
-0.00027337138665476415
-1.1913544284898008e-05
3.76741232867679e-11
9.098810268140671e-08
6.457187175956712e-07
2.784261668082886e-06
9.242985993127821e-06
2.5816694419143002e-05
6.350475639519447e-05
0.00014141328516166689
0.00029034081611789466
0.0005568213616821883
0.001007242394194643
0.0017315274619563582
0.0028458029628932267
0.004493476555778723
0.006844247845872759
0.010090742374383751
0.014442686194201441
0.02011878989513087
0.027336753885389642
0.03630200951353595
0.04719594897798458
0.060164457001323834
0.07530753632445374
0.09267072493504985
0.11223885129800995
0.13393248523146684
0.1576072385142666
0.1830558714609617
0.21001298661341264
0.2381619505424014
0.2671435863750169
0.29656612487872436
0.32601588832956824
0.35506820342863354
0.38329808971861107
0.4102903399610918
0.43564869051880467
0.459003865470951
0.48002036171204504
0.4984019188102976
0.513895683552557
0.5262951328526594
0.5354418591823321
0.5412263499587696
0.543587907135911
0.542513856801843
0.5380381923498121
0.5302397803331317
0.5192402369754217
0.5052015569064946
0.4883235452732246
0.46884107100252226
0.4470211236650697
0.4231596202771155
0.39757787329419997
0.3706186001161289
0.3426413328449029
0.3140170826906955
0.28512213669005454
0.25633092660419876
0.22800801968788684
0.20049943896567407
0.17412371267539525
0.14916324542565454
0.1258567457904201
0.10439347618788693
0.08490996110176506
0.06748948463963304
0.05216427065012749
0.03891977287850514
0.027700154697775342
0.018413946393088125
0.010939102627245493
0.005127196058301795
0.0008071033511560807
-0.0022109787849432408
-0.004130230802779263
-0.005160003959504342
-0.005506801436817704
-0.005364354401748492
-0.004904298770170028
-0.004269084852272251
-0.0035683389703315142
-0.0028790918715857197
-0.002249389013195663
-0.0017041139653419558
-0.0012515866224661032
-0.0008896624573960504
-0.0006105196796379852
-0.0004038663187434907
-0.00025874161418308264
-0.000164326479822801
-0.0001102147057355507
-8.649110606908888e-05
-8.378520929212473e-05
-9.324641522965294e-05
-0.0001060520102955094
-0.00011139244097245862
-9.049619358062512e-05
-4.191772381555899e-06
2.9937713926830486e-10
2.4756140289457016e-07
1.6051845682240589e-06
6.488693763835434e-06
2.0462896905375783e-05
5.474063128255797e-05
0.00012969183353306603
0.0002793211439625345
0.0005564715626761044
0.0010382990834808979
0.001831381684656446
0.0030757165790728795
0.004946851723452568
0.007655502359172172
0.011444211116738665
0.01658089284682453
0.023349422423182352
0.03203773068442569
0.04292412974474808
0.05626276375654549
0.07226915857616414
0.09110682222885705
0.11287573915572308
0.13760342591194802
0.16523900020632173
0.19565048551923703
0.22862535371806525
0.26387411654033804
0.3010366255585555
0.33969063485553375
0.37936212107183004
0.4195368373638992
0.45967259394893784
0.4992117997614582
0.5375938586098242
0.5742670811466056
0.6086998443070515
0.6403907975344436
0.6688779765777303
0.6937467388057532
0.7146364778835951
0.731246110221032
0.7433383513436588
0.750742818119695
0.7533580036336303
0.7511521765121931
0.7441632567403903
0.7324977164859056
0.7163285481988886
0.6958923343214434
0.6714854444416092
0.643459377843263
0.6122152633410126
0.5781975251754712
0.5418867245123226
0.503791591421978
0.4644402726787308
0.42437083718131646
0.3841211051755923
0.344217903517432
0.3051659028593428
0.26743627086142013
0.2314554831109407
0.19759476739975368
0.16616079997290917
0.1373883880455198
0.11143590814290714
0.08838416699054055
0.06823907147161329
0.05093804316050456
0.03635956351240246
0.024334723920818153
0.01465934649789595
0.007105271700954041
0.0014298152680223015
-0.0026169213666779796
-0.005286470371933914
-0.006827218250123996
-0.007479416340984764
-0.007469356806186298
-0.007002792790556328
-0.006258404171150483
-0.005382542952029767
-0.004486448845920409
-0.0036466239952988116
-0.002908302352886697
-0.0022912367535880083
-0.0017966019594111199
-0.0014137786898521822
-0.0011260827701724259
-0.0009149679869519722
-0.0007626759706085463
-0.0006536034507108081
-0.0005747626305498372
-0.0005156364450707283
-0.00046746858003866875
-0.00042140543745641736
-0.0003632737764050669
-0.00025821613369362466
-1.1229984309981027e-05
1.2534572682380077e-09
6.279034905958901e-07
3.765662345953272e-06
1.4360975957138498e-05
4.3189350981768615e-05
0.00011093741540710354
0.00025358528265131893
0.0005288287476900301
0.0010229898541241058
0.0018576053701491336
0.0031947162424075144
0.0052398520764441485
0.008241832202773094
0.012488777927146925
0.018300110974663594
0.02601474430931725
0.03597609019633898
0.04851485860268203
0.06393085357215293
0.08247507305534722
0.1043333771190513
0.12961282740882984
0.1583315474270365
0.19041264578480074
0.2256824209920308
0.2638727601628592
0.30462738118295385
0.34751136514892267
0.39202329079479353
0.4376092147006017
0.48367773373003875
0.5296154087525903
0.5748019086742419
0.618624338257562
0.6604903302745756
0.6998396021177363
0.7361537911967144
0.7689644866219596
0.7978594632479671
0.8224871963116425
0.8425597902328074
0.8578544942273416
0.8682140014553623
0.8735457390829552
0.8738203556004808
0.8690696007017579
0.8593837735362373
0.8449088885702553
0.8258436758349675
0.8024364950987473
0.7749822025966915
0.7438189656674161
0.709324976622819
0.6719149745538172
0.6320364453067032
0.5901653389069894
0.5468011240905647
0.5024609954076624
0.45767306370535243
0.4129683997026988
0.368871866844066
0.3258917775905236
0.2845085400698937
0.2451626302059858
0.20824242217595476
0.1740726192649501
0.14290421257441646
0.11490700306009609
0.09016568911410905
0.06868029219996705
0.05037124827944511
0.03508887761833933
0.022626278805965197
0.012734148430049896
0.005135782873172647
-0.00045931817145028687
-0.004344276332627128
-0.0068063458554215054
-0.008120642632459558
-0.008545199829461654
-0.008316486084091777
-0.0076449553562540976
-0.006710818988397792
-0.005660745122939586
-0.00460636059739913
-0.003625182400235387
-0.0027640558824471944
-0.0020445650445928797
-0.0014694513561970234
-0.0010289735187022186
-0.0007063532931662132
-0.00048185243807639933
-0.0003354383917070013
-0.0002482792997191274
-0.00020338943663608276
-0.00018559856531914437
-0.00018058513338457978
-0.00017177654924410314
-0.000131980991097652
-5.9323014532604195e-06
4.1520868857334374e-09
1.496243972417028e-06
8.377320523040804e-06
3.0301066226166597e-05
8.721114795927129e-05
0.00021565914995805844
0.0004766020555079996
0.0009640462187210157
0.0018135454126048539
0.0032093127929846677
0.005388639259342371
0.008642454626963406
0.013311211276703283
0.019775761348804252
0.028443460217763
0.039730273584619995
0.05404011361283311
0.07174292319012214
0.09315313776505948
0.11851008249128092
0.1479616353425964
0.18155214855959337
0.2192152232844192
0.26077152661961495
0.30593146988608694
0.3543022628306685
0.4053986387173074
0.45865641464082607
0.5134480045812713
0.5690990268651571
0.6249052258997934
0.6801490421666877
0.7341152974133199
0.786105599238535
0.8354511996378484
0.8815241579024773
0.9237467551645568
0.9615991842078494
0.9946255943619461
1.0224386092290525
1.044722457331449
1.061234865511783
1.0718078650185585
1.076347653326253
1.0748336431027066
1.0673168150892671
1.0539174752626321
1.0348224993266544
1.0102821297962732
0.980606372862317
0.9461610238604744
0.9073633314341172
0.8646772913635882
0.8186085417324924
0.769698812198342
0.7185198627684577
0.6656668334756182
0.6117509182670107
0.5573912775284735
0.5032061177982059
0.4498028986282067
0.39776767974540267
0.34765370123028366
0.29996939942117284
0.25516620360713094
0.21362662991632572
0.17565337555292745
0.14146028957309156
0.1111662084534776
0.08479263479725678
0.06226604597619378
0.04342521329886098
0.028033313562565033
0.015793919118340015
0.006369321535022019
-0.0006007354786981054
-0.005481821228337231
-0.008630541419839058
-0.010383916146311394
-0.011052266062690446
-0.010914816282731391
-0.010216986597794133
-0.009168539412481032
-0.007942260112783825
-0.006673386628997709
-0.005460326581413278
-0.004367162503942148
-0.0034280844533393336
-0.00265338497845408
-0.0020362316351614233
-0.0015592643099070858
-0.0012001896494481699
-0.0009358785830692622
-0.0007448587209424897
-0.000608365538153029
-0.0005101209643135703
-0.00043452803806311017
-0.0003614596599750397
-0.0002516830826593542
-1.091302128827716e-05
1.1947723185165465e-08
3.369716095704841e-06
1.774123834389468e-05
6.112486018960114e-05
0.00016886184713376678
0.0004028714687471496
0.000862244989702817
0.0016940013072543618
0.0031024438132346136
0.005355421410931536
0.008785943973380176
0.01378802471106653
0.020806253037436207
0.030319336258827986
0.04281856671260641
0.058782763147570985
0.078651621510883
0.1027995519332169
0.13151197849744944
0.16496577424212877
0.20321505685257338
0.246183051358163
0.29366020299252676
0.34530825249654756
0.400669606821981
0.45918107121127255
0.5201908578871883
0.5829777426661888
0.6467712854187334
0.7107721406796119
0.7741716373898867
0.8361699803055748
0.895992602359771
0.9529043640234744
1.0062214437601846
1.0553208882555267
1.09964789064292
1.13872094015531
1.172135039700398
1.1995632217478673
1.220756610839147
1.2355432860620734
1.2438261916993425
1.2455803312223837
1.2408494606324603
1.2297424731611417
1.2124296394505694
1.1891388361483837
1.160151861768036
1.1258009019701505
1.0864651674115924
1.0425676864183042
0.9945721926750404
0.9429800060231078
0.888326764022254
0.8311788255700705
0.7721291387592553
0.711792347217558
0.6507989069316774
0.5897880037746863
0.529399105180579
0.47026205139538946
0.4129856949182287
0.3581452317905555
0.3062685336896763
0.25782198051288474
0.21319649933838772
0.17269471900241268
0.13652031957540878
0.10477074802133575
0.07743442951542831
0.054393373668854675
0.03543162470196423
0.02024935250835558
0.008481615159412054
-0.0002799015955481497
-0.006464354925048198
-0.010500708163880776
-0.01280009877383821
-0.013742760496895209
-0.013669705227719429
-0.012878525465328004
-0.011622177431672376
-0.010109557738302044
-0.008507024301537063
-0.006940524585426056
-0.005498428564698013
-0.004235339194249062
-0.003177032522325159
-0.0023263672523496227
-0.0016696771071294265
-0.0011829763148518632
-0.0008373365487182307
-0.0006029918110760267
-0.0004519729630463695
-0.00035919602593204817
-0.00030170513085010493
-0.0002548186432137161
-0.00018138696035843128
-7.990309616641219e-06
3.104872359391515e-08
7.206984615138413e-06
3.5886938309880215e-05
0.00011820083403484939
0.00031422596201345653
0.0007247008538949113
0.0015044342036339131
0.0028744700127326488
0.005130836290920734
0.008647832377900436
0.013874314777837567
0.021322240758649098
0.031547681535411876
0.04512545778235438
0.06261932761631336
0.08455016084274065
0.1113647101881589
0.14340744621389526
0.18089751189861647
0.2239122610065284
0.272378168658738
0.32606923482654276
0.384612415550086
0.447499161575715
0.5141018428286109
0.5836936897213686
0.6554708713466175
0.728575427843716
0.8021179467753851
0.8751990887974576
0.9469292979154647
1.0164462539365031
1.0829298238299807
1.1456144354985855
1.2037989282517871
1.2568540295373793
1.304227670512649
1.345448388741452
1.3801270802552965
1.4079573609226066
1.428714783508413
1.4422551361671399
1.4485120236977407
1.447493907134017
1.4392807517789954
1.4240204095726519
1.401924839091857
1.3732662454495637
1.3383732024585386
1.2976267999571096
1.2514568392858738
1.2003380786065292
1.144786506179804
1.0853555932224108
1.022632448369099
0.9572337636518594
0.8898014088979261
0.8209975004778007
0.7514987458069987
0.6819898527384404
0.6131557998653692
0.5456727970635094
0.48019783201107696
0.4173568028309158
0.3577313812992383
0.3018449329875321
0.2501480325667254
0.20300433963930353
0.1606778191318703
0.12332246550630556
0.09097577507688376
0.06355715091985022
0.04087216908583819
0.022623155082759444
0.00842583508500672
-0.0021689779019502774
-0.009650475508173327
-0.014522088170770683
-0.017277388385700705
-0.01837987364401131
-0.01824809519464058
-0.017246611621803448
-0.01568228577254303
-0.013804766714470635
-0.01180975206067755
-0.009843793869907894
-0.008009831861143835
-0.006373084947725994
-0.0049672190894382105
-0.003800762729925556
-0.002863613047149475
-0.0021332960546325062
-0.001580538378587692
-0.0011737361289348677
-0.0008820237179022113
-0.0006767024188820919
-0.0005304884372078889
-0.0004127308050438873
-0.0002746398347030057
-1.1852907764879471e-05
7.44043035167869e-08
1.4696764551212131e-05
6.954106791374695e-05
0.00021963771629397076
0.0005631189548832027
0.001257604063994674
0.0025357815440738476
0.004717401798036957
0.008214994553192452
0.013531202886818743
0.021246620109460133
0.031998240661013914
0.04644986692716677
0.06525684028271056
0.0890281330693884
0.1182890745991979
0.15344779654858054
0.19476794637532877
0.24234944899860542
0.2961182288560046
0.3558249588411375
0.4210521751195869
0.4912285479164733
0.5656487528512965
0.6434972395119369
0.7238742158766691
0.8058223184096848
0.8883526735835722
0.9704693352162944
1.0511913682695524
1.1295721175892017
1.204715432739474
1.275788809183509
1.3420335498162679
1.4027721521715049
1.45741319124397
1.5054540028123553
1.546481484551678
1.5801713285648449
1.6062859846437212
1.6246716327639563
1.6352544190112988
1.6380361832797692
1.6330898807950223
1.6205548733036825
1.6006322397148263
1.573580229901774
1.5397099589462242
1.4993814119447866
1.4529998012058014
1.40101228787764
1.3439050484721469
1.2822006332001454
1.2164555275400228
1.1472577913588924
1.0752246120420448
1.0009995710278525
0.9252493894340613
0.8486598918381151
0.7719309127992501
0.6957698746774604
0.6208837948416477
0.5479695426452477
0.4777022676480382
0.41072206399345373
0.34761912104939563
0.2889178313151077
0.23506057034440994
0.186392109278606
0.1431458387892448
0.10543313452409744
0.07323723089152887
0.04641284135361215
0.024692426622855052
0.007699450757868658
-0.005031790095365046
-0.014031037078506968
-0.01986370787788696
-0.023101935972511006
-0.024297787288709634
-0.023961083014243025
-0.02254345904194707
-0.020429227545600812
-0.01793254476470702
-0.015299597928801024
-0.012714170661901123
-0.01030504020209437
-0.008154062356725576
-0.0063042935874534755
-0.0047678851149152305
-0.003533658823194863
-0.0025742554146331613
-0.0018526307782394218
-0.001327577419587224
-0.0009579141857285295
-0.0007049544763766243
-0.0005325874778901161
-0.0004031773918194078
-0.0002638100563738594
-1.143631553836634e-05
1.665700424637585e-07
2.867386863289117e-05
0.00012943263231669018
0.0003930394699750953
0.0009737555582795465
0.0021090623899846384
0.0041358111993942985
0.0074993842215597874
0.012752991819257356
0.020545440831121572
0.03159727059216828
0.04666675958760179
0.06650866598779082
0.09182946276359151
0.12324315604321867
0.1612315416420903
0.2061120609011284
0.25801542299761177
0.3168740455320662
0.38242129204785663
0.4542005793280073
0.531582764638555
0.6137898303112772
0.6999227461414531
0.7889914666467595
0.8799452529181279
0.9717018369474958
1.0631743147645847
1.153295019075044
1.24103595098412
1.3254256252024668
1.405562396208353
1.4806244848714734
1.5498770222851834
1.6126764793249044
1.668472867123007
1.7168100852263941
1.7573247694346708
1.789743957287989
1.8138818512147412
1.829635921172235
1.8369825525665449
1.835972412599693
1.8267256794578548
1.809427253876256
1.7843220511934663
1.7517104534127954
1.7119439842499526
1.665421254784452
1.6125842121787182
1.5539147079305047
1.4899313841643873
1.4211868554153444
1.3482651381637134
1.271779250247714
1.1923688669001906
1.1106978800325407
1.0274516642055027
0.9433338097290397
0.8590620456311792
0.775363049913843
0.6929658404164055
0.6125934666625045
0.5349527910695457
0.46072226479621714
0.3905377733087005
0.3249768474310908
0.264541797300522
0.20964261022252764
0.16058073017232524
0.11753506840577044
0.08055173498887878
0.04953897887177648
0.024268630306256016
0.004384918764142779
-0.010579112291703175
-0.021178210592272227
-0.028026075534083268
-0.03176344542675036
-0.033026045954090665
-0.03241545672931073
-0.03047555189263346
-0.027676293804197616
-0.024405489744228764
-0.02096793459020527
-0.017590436755062677
-0.014430749976685026
-0.011588448869933892
-0.009116178607577555
-0.007030272516950752
-0.005320255666644656
-0.0039571011761506646
-0.002900247902317663
-0.00210337401758179
-0.0015188179009022623
-0.0011003385089827667
-0.0008033898214285225
-0.0005804485081686329
-0.0003635418985375696
-1.5578786884869762e-05
3.515071987621317e-07
5.3684408529450025e-05
0.00023194278891733498
0.0006787290266327008
0.001627738130234395
0.0034239159854799086
0.00653733551669731
0.01156570736454334
0.019223053263845425
0.03031403541703513
0.045695524424563407
0.06622879721489537
0.09272697693215773
0.1259028013917905
0.16632153781259834
0.21436298323233846
0.27019521806298247
0.3337613560423111
0.4047791763324804
0.48275239692453537
0.5669915481770441
0.6566419594239696
0.7507162538661889
0.8481288949063479
0.9477306607645097
1.0483413622687023
1.1487795897872186
1.2478887244216792
1.344558839364702
1.4377444306125993
1.5264781470484996
1.6098808434922034
1.6871683680819658
1.75765553155558
1.8207577051199275
1.8759904686682145
1.9229676927757227
1.9613983941470823
1.9910826604066811
2.0119068995296487
2.0238386333057896
2.026921023301764
2.021267291359313
2.0070551738566964
1.9845215287447158
1.9539571957646265
1.9157021924120958
1.8701413104468911
1.8177001595298088
1.7588416854719384
1.6940631702233688
1.6238936987074657
1.5488920534568011
1.4696449711917883
1.3867656654521152
1.3008924857201467
1.2126875461094768
1.1228351162989545
1.0320395258035333
0.94102229335471
0.8505181616199742
0.7612697014456397
0.6740201589823457
0.5895042643663472
0.5084368127088497
0.43149897516409624
0.35932250291154677
0.2924722453704925
0.23142770131478899
0.17656463209532983
0.1281380532740469
0.08626813877545467
0.05093066863062122
0.021953576052343063
-0.00097914074395712
-0.018315403551288818
-0.03061494705326628
-0.03852203848346089
-0.04273288891239129
-0.04396043777171144
-0.042899696068905244
-0.040196873621136386
-0.036425027722506914
-0.0320680167650348
-0.027513311016895994
-0.023052974110210126
-0.018891153964951873
-0.015155897002738058
-0.01191306958638256
-0.009180537499037375
-0.006941328058270268
-0.005155077846108848
-0.0037675069756013314
-0.0027178993157288348
-0.001944608789948435
-0.0013884339765868
-0.0009930864067284881
-0.0007000256738239674
-0.00042847106398545933
-1.832819991311136e-05
7.038696633428541e-07
9.670828576278607e-05
0.000401053595659568
0.0011332262531458443
0.002634839494877207
0.005389403920206851
0.010029719462810829
0.01732889942552488
0.028173829126648106
0.04352256461664182
0.0643495886505121
0.09158452034623762
0.12605058391385532
0.16840886560284163
0.21911329830867127
0.27837969826380055
0.3461703631648396
0.4221940200283905
0.5059195016529674
0.5966005549330222
0.6933086726976876
0.7949707506376916
0.9004086129493737
1.008377914915766
1.1176045095022655
1.2268169661596777
1.3347744853566315
1.44028991950666
1.5422479705694156
1.6396188854176983
1.731468123075759
1.8169625409696697
1.8953736605709626
1.9660785456238161
2.0285587751327325
2.082397931417402
2.1272779600251037
2.162974698966276
2.1893528227153762
2.2063604027936483
2.2140232512879647
2.212439185355218
2.201772328271082
2.18224754451452
2.154145091469333
2.117795557510816
2.0735751446795696
2.021901343152398
1.9632290337369895
1.8980470431125394
1.8268751639399985
1.7502616375968292
1.6687810803345833
1.58303281315795
1.4936395306483115
1.4012462133340728
1.3065191513744627
1.2101449042526309
1.112828972948816
1.0152939103926384
0.9182765477277816
0.8225239754426542
0.7287878997079701
0.6378170074481752
0.5503470318865147
0.4670883256954917
0.38871092990716394
0.31582737494395924
0.2489737570257539
0.18858997783317213
0.1350003832571853
0.08839634152833113
0.04882250617552792
0.01616855624361005
-0.009831958296195806
-0.029594450393550492
-0.0436672598298885
-0.05270708039138774
-0.05744719023058057
-0.05866081132908245
-0.0571227076610082
-0.05357253109427279
-0.0486833071245361
-0.04303778685661013
-0.03711427402048625
-0.03128218321876752
-0.025806282942383036
-0.020857595073009667
-0.016528436482495697
-0.012849127355766916
-0.009804342419901885
-0.007347743868936115
-0.005414194809777953
-0.003929347245425459
-0.002816633901802795
-0.002001576257892951
-0.0014125384970787606
-0.0009743794601779835
-0.0005823862641047794
-2.4730076522769653e-05
1.3443716022604106e-06
0.00016802513887679725
0.0006704790280346055
0.001832627728151252
0.004136855885171108
0.00823773261961146
0.01495742099510421
0.025259775326264337
0.040204276338454185
0.06088417087489667
0.0883555136279685
0.12356488859106085
0.16728336310966255
0.22005290900568755
0.2821494939049567
0.353564739054964
0.4340058542998515
0.5229117879691628
0.6194823288714757
0.7227163031259917
0.831454955797389
0.9444269709543515
1.0602922145561973
1.1776820388166214
1.2952347458362212
1.4116254881575663
1.5255904356259717
1.6359454433220466
1.7415997191875598
1.8415651318481265
1.9349618458568763
2.0210209513778987
2.0990846939103713
2.168604828023176
2.2291395327231722
2.280349245209225
2.321991700034003
2.353916404284638
2.376058736061343
2.38843382156884
2.391130323120901
2.3843042537212544
2.368172921260617
2.343009094807278
2.309135475504701
2.2669195442474055
2.216768847031836
2.15912676644877
2.09446881419283
2.023299464811164
1.946149535280682
1.863574098352023
1.7761508996737445
1.6844792289760393
1.589179173218266
1.4908911535209122
1.3902756167694015
1.2880127160785382
1.184801771596698
1.0813602554184112
0.97842199460037
0.876734239948578
0.7770532138894893
0.6801377399064963
0.5867405826154715
0.4975972062486589
0.4134118030367262
0.3348406595338467
0.2624732172807508
0.19681153104017834
0.13824920535559523
0.08705125581694723
0.04333664019824257
0.007065374345351928
-0.021967873218936413
-0.044132076066154435
-0.05994893245237304
-0.07007242330900124
-0.07525952320975335
-0.0763338202389413
-0.07414480555368329
-0.06952633533257112
-0.06325806876104251
-0.05603342935694386
-0.04843681475858807
-0.04093151449151852
-0.03385832414637839
-0.027443464948806274
-0.02181340390759312
-0.017013693200291353
-0.013029031481722776
-0.009802274397201445
-0.0072508745625803695
-0.00527997817346432
-0.0037919359108917684
-0.0026920766265289696
-0.0018897541210651128
-0.0012902516185199768
-0.0007612053743193612
-3.218464414279181e-05
2.459465070731798e-06
0.00028218108001292966
0.0010857853808469453
0.0028754221625060875
0.00630971866079783
0.012245078007432256
0.021712701282319034
0.0358704216084559
0.05593396637976126
0.08309551692743591
0.11843909734042078
0.16286226077553742
0.21701199829020465
0.2812402677484617
0.3555816155015203
0.4397525790595829
0.5331703100619989
0.6349863574715501
0.7441308421806552
0.8593622439229006
0.9793185368775077
1.1025662499690332
1.2276450014898395
1.3531060124706324
1.4775439348340815
1.599621982601942
1.718090811533166
1.8318018679664683
1.9397160522302346
2.0409085540548615
2.1345706551106
2.2200091902841392
2.2966442404738316
2.3640055135727267
2.4217277678398212
2.4695455481800987
2.5072874419096345