# vtk DataFile Version 4.1 
COMMENT
ASCII
DATASET STRUCTURED_POINTS 
DIMENSIONS 100 100 1 
ORIGIN 0 0 0
SPACING 0.12693303650867893 0.12693303650867893 0 
POINT_DATA 10000
SCALARS U double 1
LOOKUP_TABLE default
0.0
0.0
0.0
0.0
0.0
0.0
0.0
0.0
0.0
0.0
0.0
0.0
0.0
0.0
0.0
0.0
0.0
0.0
0.0
0.0
0.0
0.0
0.0
0.0
0.0
0.0
0.0
0.0
0.0
0.0
0.0
0.0
0.0
0.0
0.0
0.0
0.0
0.0
0.0
0.0
0.0
0.0
0.0
0.0
0.0
0.0
0.0
0.0
0.0
0.0
0.0
0.0
0.0
0.0
0.0
0.0
0.0
0.0
0.0
0.0
0.0
0.0
0.0
0.0
0.0
0.0
0.0
0.0
0.0
0.0
0.0
0.0
0.0
0.0
0.0
0.0
0.0
0.0
0.0
0.0
0.0
0.0
0.0
0.0
0.0
0.0
0.0
0.0
0.0
0.0
0.0
0.0
0.0
0.0
0.0
0.0
0.0
0.0
0.0
0.0
1.2214536010589031e-12
-5.991051053046914e-10
-6.597671888661263e-09
-3.7248111307069484e-08
-1.5097902530370396e-07
-4.954498541366799e-07
-1.3969950696965107e-06
-3.5046463010831825e-06
-8.001864344177271e-06
-1.6892895466808567e-05
-3.3360114019792996e-05
-6.217466350903731e-05
-0.00011012700623654207
-0.00018642922459409715
-0.00030302994008702034
-0.0004747780809889782
-0.0007193751526548533
-0.0010570676554958035
-0.0015100510236448418
-0.0021015818741407107
-0.002854823536137758
-0.0037914774443947607
-0.004930276813360313
-0.006285436403813841
-0.00786516138867976
-0.009670318602284943
-0.011693365141696124
-0.01391761359274234
-0.016316891931381423
-0.018855631606403016
-0.021489391704305465
-0.024165802504500764
-0.026825889853729693
-0.029405723844219588
-0.031838321978153034
-0.03405572856155304
-0.035991188298051605
-0.037581332434178515
-0.038768299621259106
-0.0395017200804095
-0.039740499852471384
-0.03945435111551503
-0.03862502411081865
-0.037247205642398494
-0.035329058088540775
-0.032892381248998515
-0.029972387183154633
-0.026617085661811833
-0.022886285275234855
-0.018850223018751402
-0.014587843757463262
-0.010184760762790818
-0.005730939801311115
-0.001318162093391243
0.002962664454245156
0.007024261764637051
0.010785708114235671
0.014175025782747127
0.017131514615992806
0.019607717005878322
0.021570909374857623
0.02300403451439001
0.023906017339168726
0.024291441228213632
0.024189598949876316
0.023642966223204522
0.02270517284208883
0.021438563738709338
0.019911451485232358
0.018195166985612896
0.01636102271405811
0.014477317743214676
0.012606536127328314
0.010802913120384287
0.009110554096407215
0.007562273841012487
0.006179268975351237
0.0049716450341218766
0.003939707821352351
0.003075822788578522
0.0023665750862431095
0.001794946448087617
0.0013422659582986807
0.0009897746346535596
0.0007197415955691427
0.0005161546461972613
0.0003650621581318437
0.0002546620906323215
0.000175226104112196
0.00011892579511867146
7.960649585438806e-05
5.253845582640185e-05
3.416622529971055e-05
2.187197331909357e-05
1.3764279170696091e-05
8.499058607810612e-06
5.133176319212923e-06
3.000697199542968e-06
1.5655720209636952e-06
6.830110738479643e-08
2.5303326773981627e-12
-2.106268555228229e-09
-1.880419142556096e-08
-9.38400329311453e-08
-3.472087248021091e-07
-1.0576046214642966e-06
-2.7965452629738146e-06
-6.625128107433022e-06
-1.4356689699458365e-05
-2.887671871511072e-05
-5.449671058925181e-05
-9.730376232672715e-05
-0.000165455662550578
-0.0002693649750307042
-0.00042171726536246974
-0.0006372789630176898
-0.0009324686082622174
-0.0013246891900247576
-0.001831445698825463
-0.0024692972396696284
-0.003252713639392347
-0.004192919787039556
-0.005296815457336166
-0.006566053860792097
-0.00799634960576933
-0.009577068039548184
-0.011291125504805988
-0.013115206513456922
-0.015020281616259413
-0.01697239078741225
-0.01893364278227254
-0.020863371828445033
-0.022719389216288684
-0.02445926839072665
-0.026041607171858886
-0.027427218697336418
-0.02858021246995663
-0.029468937447890562
-0.03006676950830838
-0.0303527351110848
-0.030311971056889396
-0.02993602654290708
-0.029223018117767084
-0.028177650620911352
-0.026811117872091617
-0.025140895952821502
-0.023190439659705887
-0.020988789434165624
-0.018570092169268648
-0.01597303522001453
-0.013240189246513222
-0.010417252852236113
-0.007552191095373529
-0.004694261666973948
-0.0018929276307099042
0.0008033353073859054
0.0033483158437132904
0.005699390586674845
0.007818837628296544
0.009675066225021699
0.01124367605762907
0.012508256480170052
0.013460846696244347
0.014102004041989124
0.01444046811671718
0.014492457405054338
0.014280681870907556
0.013833186908509116
0.013182149511742163
0.012362721274010755
0.011411959829886726
0.0103678269070909
0.00926818130171098
0.008149682299990451
0.007046555846123476
0.005989255520402124
0.005003146410426076
0.004107413545801871
0.0033144124845294986
0.0026296222753492606
0.0020522433847008736
0.0015763433726569043
0.001192338967095765
0.0008885520869356717
0.0006526009757715218
0.0004724689749658168
0.00033719712695961526
0.00023723590074306737
0.0001645426820504618
0.00011252187756638714
7.588595694345535e-05
5.048679930809278e-05
3.314195327744073e-05
2.146611493336883e-05
1.3712995570420666e-05
8.631892580625245e-06
5.341528562648223e-06
3.214465483660982e-06
1.7255608880176499e-06
7.666964755711427e-08
2.706251098923403e-12
-6.943287193796983e-09
-5.461971737109125e-08
-2.521262403348846e-07
-8.81251165504245e-07
-2.5661826469652966e-06
-6.537763312198477e-06
-1.500642368054143e-05
-3.1642823181753346e-05
-6.214435252911658e-05
-0.00011484205233822331
-0.00020128043643769712
-0.000336686742763881
-0.0005402401334516089
-0.0008350576183877304
-0.0012478321904970233
-0.0018080879144329713
-0.002547052843307559
-0.0034961889586901476
-0.0046854539537449945
-0.006141398324435548
-0.007885219813995883
-0.009930904208982582
-0.012283576809231192
-0.014938173941839989
-0.0178785209986862
-0.021076875527236836
-0.024493963882416415
-0.028079510585129315
-0.031773233052929145
-0.03550625234499618
-0.03920285389402
-0.04278252115538746
-0.04616215944966595
-0.04925842639301202
-0.05199008835386256
-0.0542803283906
-0.05605893916183398
-0.05726434348410376
-0.05784539479392808
-0.05776291915765404
-0.0569909692281868
-0.05551776838944285
-0.053346330111193795
-0.05049474322993765
-0.046996118542953325
-0.04289819589669256
-0.03826261407083702
-0.033163848456687316
-0.02768782409509427
-0.021930214409656753
-0.015994439334004948
-0.009989380950249092
-0.004026840789517894
0.0017812287327816255
0.007325674902153877
0.012503218285815776
0.017219570759700657
0.021392495617660035
0.024954680462083524
0.027856266387854337
0.030066854572366703
0.03157680100322792
0.03239762035162918
0.03256135911597994
0.03211887092366693
0.03113703130424278
0.029695053825361483
0.027880192711356923
0.02578321066227098
0.023494026766463463
0.02109792072863223
0.018672558131455835
0.01628594237544155
0.013995235874871913
0.011846274043046834
0.009873554561851955
0.008100526190029433
0.006540097647023569
0.005195387586392018
0.0040607911294538385
0.003123419926669503
0.002364890056072661
0.0017633248574130125
0.0012953584867529417
0.0009379074170962314
0.0006695283598427106
0.0004712790614571655
0.0003271040491079269
0.00022384514637509043
0.0001510089450548887
0.00010041399511873907
6.580671634956075e-05
4.24967995770604e-05
2.703345796552722e-05
1.692696090786334e-05
1.0410691178088417e-05
6.223058561409152e-06
3.317567284814526e-06
1.4571718388680986e-07
-8.582741912553928e-12
-2.073037568845407e-08
-1.4642663986838448e-07
-6.280384970186997e-07
-2.072925617520863e-06
-5.754251991977717e-06
-1.4062050563109521e-05
-3.109813926269968e-05
-6.33882298167626e-05
-0.00012065126194144303
-0.00021653461480513253
-0.00036920139049897115
-0.0006016483633602097
-0.0009416438784056449
-0.001421204055917614
-0.002075569807569084
-0.002941700357869316
-0.004056353641071781
-0.00545387245894728
-0.007163831206390809
-0.009208717040179042
-0.011601819960116885
-0.014345489370470976
-0.01742988342005874
-0.020832296339325575
-0.024517103275953994
-0.02843631680430666
-0.03253070862622271
-0.03673141713328551
-0.04096193830816718
-0.04514038448775252
-0.0491818922963357
-0.05300106627560022
-0.056514356571753584
-0.059642285448315846
-0.062311456353469824
-0.06445629896017344
-0.06602052250541575
-0.0669582667396741
-0.06723495408882264
-0.06682785779997696
-0.06572640875024281
-0.06393226832937658
-0.06145919661393668
-0.058332744289682506
-0.05458979387248879
-0.05027797117945384
-0.04545494217709207
-0.040187603751485335
-0.03455117007647016
-0.028628149575348927
-0.022507201464987376
-0.016281856044647377
-0.010049079788007387
-0.003907665521375848
0.0020435697662651016
0.007707790774130974
0.012992353592338258
0.017811202226634664
0.022087410456209416
0.025755795219797407
0.028765488177785615
0.03108230817143391
0.032690735049042845
0.03359525448604801
0.03382083672809759
0.03341234295731292
0.03243273084784836
0.030960056360131737
0.02908342865195389
0.026898240700950437
0.024501130436993424
0.021985186034851705
0.019435868670642037
0.01692798766437207
0.01452385967471422
0.012272572961987568
0.010210121825024496
0.008360117406185218
0.0067348233468583546
0.005336372337483897
0.004158132946694097
0.0031862601281500403
0.0024014522485534856
0.0017808668694709751
0.0013000606649176895
0.0009347644924049302
0.0006623117881188176
0.0004626045021865918
0.00031859685195058043
0.00021636561277986927
0.0001448886600919074
9.566302429133101e-05
6.226998959902948e-05
3.9956457431711075e-05
2.526520063846377e-05
1.5717649708006473e-05
9.517765712947376e-06
5.133440797743642e-06
2.254274362927276e-07
-6.915537756310821e-11
-5.718376731079037e-08
-3.6924003661323636e-07
-1.485296545361833e-06
-4.6585629174455374e-06
-1.2388501420110931e-05
-2.9165065384499806e-05
-6.239165970794721e-05
-0.00012341789076565938
-0.00022856819669878853
-0.00040001805076869484
-0.0006663543903760136
-0.0010626666146057115
-0.0016300495605508587
-0.002414456085248401
-0.0034649061124370196
-0.00483113096572259
-0.006560796114511078
-0.00869649347841253
-0.011272720608526552
-0.01431306646758934
-0.017827803728682645
-0.021812049832380415
-0.02624460952729315
-0.03108755689463932
-0.03628656113027655
-0.041771912677837524
-0.04746016815334734
-0.05325630567823346
-0.05905626701685625
-0.06474975835024804
-0.07022318583377622
-0.07536261307088449
-0.08005664298277185
-0.08419914412833625
-0.08769175953237394
-0.09044615313846804
-0.09238596417851233
-0.09344845250534138
-0.09358582806230607
-0.09276626520897818
-0.09097460780168849
-0.0882127740580124
-0.0844998716771171
-0.07987203381007202
-0.07438198562571333
-0.06809834972291025
-0.06110469680212427
-0.05349834612186542
-0.04538891863103146
-0.036896644613087774
-0.0281504275651982
-0.019285667261292803
-0.010441847923640075
-0.0017599025394349603
0.006620628083163936
0.014564612740551755
0.021944482127224902
0.028643459016083374
0.03455879163229429
0.03960489564995636
0.043716288359907735
0.046850175031526727
0.04898852344174561
0.05013944078888963
0.050337653331807425
0.04964389206487157
0.04814301922159941
0.0459408019670503
0.043159357732996007
0.03993145537240382
0.03639403658167731
0.03268148547536409
0.028919274317004844
0.025218609052931475
0.021672571107871432
0.018354019356793753
0.015315232375270013
0.012589011625744778
0.010190801345089822
0.008121347500423889
0.006369504853705333
0.004914954210715037
0.003730740619684085
0.002785632100870919
0.0020463098595244274
0.0014793575728426324
0.0010529645506849891
0.0007382367713114702
0.0005100381722518788
0.0003473505799421921
0.00023321500818390843
0.00015437052486753333
0.00010072417493487294
6.47687502211855e-05
4.102782013477776e-05
2.556105566760231e-05
1.5495593430361298e-05
8.357940345536358e-06
3.655836140860762e-07
-2.9384629878454674e-10
-1.471866445743573e-07
-8.794109250010916e-07
-3.3385055380451992e-06
-9.988424589205303e-06
-2.5511193147365052e-05
-5.7958363413596006e-05
-0.00012007992301632852
-0.00023068811369622965
-0.00041586160598817864
-0.0007097691729397498
-0.0011549001600581065
-0.0018015335629112496
-0.002706353018897105
-0.003930210142818057
-0.005535138624757098
-0.00758081126183093
-0.010120698988212091
-0.013198226840932388
-0.01684322383457674
-0.02106893421910626
-0.02586980291047334
-0.031220176843317366
-0.037073986235813115
-0.04336539425140573
-0.050010337530410204
-0.05690882846485868
-0.06394785536792372
-0.07100469908657912
-0.07795048260576842
-0.08465378108939557
-0.090984140275666
-0.09681537774557426
-0.10202857111848378
-0.10651466699697403
-0.11017667239939406
-0.11293141503536522
-0.11471087923713813
-0.11546314029313742
-0.11515293135586181
-0.11376188429888351
-0.11128848932616472
-0.10774781832042987
-0.10317105440133444
-0.09760486546745172
-0.0911106530874324
-0.08376370039717664
-0.07565223401532137
-0.06687640574512096
-0.05754719032780578
-0.04778518613679068
-0.03771929693086099
-0.027485265230838368
-0.017224022331159102
-0.007079817366276293
0.002801910673159243
0.012276947380452909
0.021205020258236812
0.02945281535795003
0.03689726242899579
0.04342902381721736
0.04895608300497308
0.05340728609318108
0.056735646598927665
0.05892118438447113
0.059973038108858734
0.05993057365741209
0.05886321703364033
0.056868779657789824
0.05407012765080453
0.050610181553141544
0.046645416496051875
0.04233824698654559
0.03784888879999345
0.03332744257704113
0.028906987934800357
0.024698379246945543
0.020787196483588486
0.017232972081663987
0.014070467912003637
0.011312504401500448
0.008953712572421012
0.006974606137164735
0.005345517897671639
0.004030140167624387
0.0029885780287662745
0.002179920951008402
0.0015643593999100055
0.0011048498271646488
0.0007683064640207431
0.0005263013943391475
0.0003552901833019637
0.0002364320350513269
0.0001551165663900231
0.00010032600062669469
6.394695939897525e-05
4.0101170363367085e-05
2.4466627586757125e-05
1.325652750286006e-05
5.78090011395151e-07
-9.886229704963305e-10
-3.5622128063189376e-07
-1.9876264681395518e-06
-7.158491709559544e-06
-2.0501609113002596e-05
-5.042012840395418e-05
-0.00011076666054237521
-0.00022263004981307386
-0.0004159827569829047
-0.0007308976524302203
-0.0012180455734303974
-0.0019382383715626217
-0.0029608797759060265
-0.00436131268379921
-0.006217185712641376
-0.008604082616149733
-0.011590747670806815
-0.015234287071165675
-0.019575727189766245
-0.02463626904493801
-0.030414503906275217
-0.03688476034451645
-0.04399665167496168
-0.05167579680051015
-0.05982560629937223
-0.06832996509848537
-0.07705660557667027
-0.08586094975598627
-0.09459020340830161
-0.10308750409796476
-0.11119595453827526
-0.11876240744578813
-0.12564090424574834
-0.13169570432381553
-0.13680387182744222
-0.14085741202279753
-0.14376496843313644
-0.1454531055564095
-0.1458672104366847
-0.14497205054019002
-0.14275202615247887
-0.1392111537440026
-0.13437281323489664
-0.12827928748421366
-0.12099111714664523
-0.11258628865091397
-0.10315926770184969
-0.09281988553404683
-0.08169208021807026
-0.06991249067099606
-0.05762889668072391
-0.044998494286619464
-0.03218599242117485
-0.019361514095075073
-0.006698284067611733
0.005629914433306404
0.01745152788961945
0.028600272083307548
0.03891841708249886
0.04826029296920216
0.05649596629340189
0.06351500524525913
0.06923021396904538
0.07358117547438477
0.07653740153593346
0.07810085116489172
0.07830755205540879
0.07722804838843236
0.0749664114766512
0.07165759631993981
0.0674630168494705
0.06256435230447291
0.057155785603083605
0.05143509635266031
0.045594252679285255
0.039810317436770035
0.03423755006413607
0.029001502734643417
0.02419566901200697
0.019880881453383528
0.016087250279684173
0.01281808723707581
0.010055051954280612
0.007763731885660548
0.005899001564161503
0.0044097345632877925
0.0032426772061228916
0.0023454694451599434
0.0016688886525961523
0.0011684106474455689
0.0008051666667763372
0.0005463614861651009
0.0003652243641309307
0.00024058717292279078
0.00015620627867535183
9.994809859794121e-05
6.292387867101166e-05
3.8534003152614204e-05
2.0922329119915244e-05
9.091751578287708e-07
-2.8914468819520517e-09
-8.153931743224307e-07
-4.2793528802741585e-06
-1.4683942363042914e-05
-4.037332966375957e-05
-9.581350587495973e-05
-0.00020388153565559274
-0.0003980684995914567
-0.0007242163326313642
-0.00124139854154777
-0.0020216153236427316
-0.0031480977049261425
-0.004712182276450331
-0.0068088990740329215
-0.009531579823266056
-0.012965916700861706
-0.017183966734842293
-0.02223859887427646
-0.028158824967639537
-0.03494635571831154
-0.04257359591884763
-0.050983158559584185
-0.06008885130816946
-0.06977798381530978
-0.07991476779069719
-0.09034453639442562
-0.10089849368620621
-0.11139871422576558
-0.1216631413278519
-0.1315103733441828
-0.14076407446112785
-0.14925689463154967
-0.1568338284390265
-0.1633549822836057
-0.16869775184573182
-0.17275843687859418
-0.17545333827199855
-0.17671939376436022
-0.17651441464202208
-0.174816987319346
-0.171626101853754
-0.16696056510927354
-0.16085825017295793
-0.1533752263162095
-0.14458480568678425
-0.13457653429380154
-0.12345514588138842
-0.11133948808174146
-0.09836142086712298
-0.08466467785887302
-0.07040367162090187
-0.0557422148740858
-0.040852120958391275
-0.025911639361229415
-0.011103676460986502
0.00338625121569695
0.017372382734120492
0.030671442354371862
0.04310576426412286
0.054506821780461484
0.06471913913248821
0.07360452322109008
0.08104650353686957
0.08695481319680279
0.09126968698929223
0.09396569909502565
0.09505482063964368
0.0945883529325284
0.09265739382291116
0.08939152962165949
0.08495552069744143
0.0795438711903102
0.07337334494469144
0.0666737059378811
0.059677204670088836
0.052607568070363576
0.04566942979870088
0.039039204396629765
0.03285831758666627
0.027229442784345765
0.022215993567978282
0.017844662392003167
0.01411038240794858
0.010982819404674436
0.00841342993145842
0.006342243362950751
0.004703777531450511
0.003431788689520193
0.0024628042769297784
0.0017385448605165403
0.001207407516631718
0.0008251863716305279
0.0005551853731522518
0.00036786079461837324
0.00024012371763675673
0.00015442456884126124
9.770120782939457e-05
6.010291702098079e-05
3.271930592718021e-05
1.4166370961973938e-06
-7.64222667223717e-09
-1.773638115934835e-06
-8.80552597749391e-06
-2.889022048205517e-05
-7.645112059025858e-05
-0.00017541392576478454
-0.0003620976982809907
-0.0006876417300215802
-0.0012194481928321018
-0.002041183488737383
-0.0032510350239609315
-0.004958137913483716
-0.0072773280822086535
-0.01032260152945827
-0.014199827696750012
-0.018999354514242447
-0.024789146316140428
-0.031609020963544975
-0.03946641807708186
-0.04833396131759257
-0.05814890015262586
-0.06881435315176261
-0.08020214210395266
-0.09215691347286793
-0.10450119332454365
-0.11704101068244042
-0.12957174526956067
-0.14188389980240332
-0.1537685550850123
-0.1650223296645811
-0.17545172792628555
-0.1848768163398016
-0.19313421416354573
-0.20007942098489895
-0.20558852905828207
-0.2095593844422668
-0.21191226891346615
-0.21259017625633148
-0.21155875349511916
-0.2088059714866037
-0.2043415813207658
-0.1981964041906952
-0.19042149352278695
-0.18108719968256307
-0.17028215975483246
-0.15811222783185208
-0.14469935488946045
-0.1301804215521748
-0.11470602164352235
-0.0984391891550625
-0.0815540559168813
-0.06423442162816077
-0.04667221191969084
-0.029065793843679372
-0.011618111931484373
0.005465397641157532
0.021979161164632346
0.03772013695185088
0.052490843293598245
0.06610277638734896
0.07838022908247473
0.08916448938143477
0.0983183536617414
0.10573083417507868
0.11132187627779071
0.11504683322991309
0.11690038282724431
0.11691952000305438
0.11518523314618379
0.11182247928815978
0.10699812329344242
0.10091660536665778
0.09381325300510274
0.0859453563975081
0.07758137047662512
0.06898887047592521
0.060422133904204534
0.05211039961449949
0.04424790846880391
0.03698671594641063
0.030432972436353265
0.024646925923946815
0.019646395493817092
0.015413002426370535
0.011900133883145947
0.009041517016234485
0.006759400732557982
0.0049716192014994005
0.0035971507424339974
0.002560094382645962
0.001792203058183294
0.001234221437661345
0.0008362993515990114
0.0005577268631812162
0.00036619655527010285
0.00023675346404324353
0.0001505136334325208
9.297490833138201e-05
5.071995602838861e-05
2.1875973245015943e-06
-1.863693958848546e-08
-3.6806600780335273e-06
-1.7366977552516524e-05
-5.464742662688748e-05
-0.0001394882557286731
-0.0003099580006531137
-0.000621542872041854
-0.0011493776660561645
-0.001988762380858603
-0.0032535186537514466
-0.005072019795882292
-0.007581049539413558
-0.01091794739366105
-0.01521173039083524
-0.02057400776687103
-0.027090515213488885
-0.03481399874854759
-0.04375900115840485
-0.05389888119974199
-0.06516516318897331
-0.07744910305677698
-0.09060518831420414
-0.10445617531211072
-0.11879920973013885
-0.13341256989792888
-0.14806260692650405
-0.16251051808089362
-0.17651866773662359
-0.18985625261339933
-0.2023041862462251
-0.21365914609990685
-0.2237367822404356
-0.23237412810235825
-0.23943128229005928
-0.24479244719591978
-0.24836641769144657
-0.2500866135431947
-0.24991074465732202
-0.247820190577941
-0.24381916627894765
-0.23793373622981168
-0.23021072866568926
-0.22071659234561658
-0.20953622901426888
-0.19677182631239437
-0.18254170792815957
-0.16697921020908207
-0.15023158710044962
-0.13245893797849378
-0.11383314555963335
-0.09453680347955581
-0.07476210529151964
-0.05470965855990441
-0.034587179575846214
-0.014608016330776035
0.005010559665925944
0.024049357440253525
0.04228963344988426
0.05951588579083562
0.07551913081384007
0.09010069867924803
0.10307655432814022
0.11428210707448204
0.12357741496353873
0.1308526205356633
0.13603337659634596
0.13908594090689602
0.14002154712559475
0.13889960771858093
0.13582928556283835
0.13096899626921557
0.12452348188116062
0.11673823345210295
0.10789123458624575
0.09828224297188176
0.08822010579202548
0.07800888951618333
0.06793385365908026
0.05824845966947598
0.0491636266013435
0.04084028528311775
0.03338593595696289
0.026855421017714293
0.02125557115914684
0.016552884432001768
0.012683062650490396
0.009561126417393578
0.0070909628395101065
0.005173469226306832
0.0037128426865903927
0.002620927831415719
0.0018198012084804705
0.0012429160265034634
0.0008351693321283557
0.0005522214961817898
0.00035932214020630525
0.00022975394275819122
0.00014259658943948324
7.796807118993452e-05
3.3493045002017294e-06
-4.24820797978372e-08
-7.311646584797598e-06
-3.29163061572699e-05
-9.959601347464875e-05
-0.0002456887643308165
-0.0005295376574219348
-0.0010327972068453898
-0.0018617588566887506
-0.003146046071614448
-0.005034381579257559
-0.007687552475792883
-0.011269108734543757
-0.01593465184264086
-0.02182075217652367
-0.029034557750755433
-0.03764503553726537
-0.04767655541188197
-0.05910523414548652
-0.07185815231401953
-0.08581528271606811
-0.10081375421799425
-0.11665393468863032
-0.13310675226396673
-0.14992167676005988
-0.16683483744272698
-0.18357684183315381
-0.1998799655936665
-0.21548449125547992
-0.23014407280641486
-0.24363008709769823
-0.25573499838524005
-0.26627480867997105
-0.275090695534258
-0.2820499532096085
-0.287046356122366
-0.2900000583012859
-0.2908571322207451
-0.2895888371826929
-0.2861906932221737
-0.2806814225719696
-0.2731018078375485
-0.26351350462499784
-0.2519978365745989
-0.23865459253103813
-0.22360083875370296
-0.2069697533889082
-0.18890948560102572
-0.1695820374810281
-0.14916216279765265
-0.12783627250329072
-0.10580133233378855
-0.0832637325504366
-0.06043810361793438
-0.0375460442506883
-0.014814719822605803
0.007524720077052102
0.029238965466327566
0.05009467992247518
0.0698610187970877
0.08831260598694693
0.10523303555873446
0.12041894513590114
0.13368467405145057
0.14486746851824805
0.15383312777971261
0.16048190127593684
0.16475435260534696
0.16663681064436345
0.16616594438674864
0.16343194117447357
0.1585797538824993
0.15180792525586084
0.143364606508318
0.13354056545170503
0.12265922171215866
0.11106403860718518
0.09910391818822745
0.08711755161626855
0.0754179243996348
0.06427831138436348
0.053921069264573414
0.04451031291162169
0.0361491497557655
0.028881594328734238
0.022698687704221957
0.017547823127344365
0.013343939859298702
0.009981158614247398
0.007343594604381316
0.005314434210636122
0.0037827943800033655
0.0026482920692820415
0.0018235560304432521
0.001235082665620492
0.0008228797070409709
0.0005392763606194253
0.0003470730049770971
0.00021657422890258263
0.00011873298554218267
5.079049825774767e-06
-9.13245842748751e-08
-1.3944873750095832e-05
-6.0094664281012275e-05
-0.00017524292862456203
-0.0004185102814836103
-0.0008761155688836643
-0.0016639000850615516
-0.002926713294170611
-0.00483415549741353
-0.007572723630551748
-0.01133495928774097
-0.016306644683485236
-0.022653356912493518
-0.03050774297176021
-0.03995873152052107
-0.051043600218955446
-0.06374343593463827
-0.07798212757863936
-0.09362867568689993
-0.11050232870539459
-0.12837988229239597
-0.14700440522536953
-0.1660946701550807
-0.18535464771095692
-0.2044825437320758
-0.22317899852142425
-0.2411542050407883
-0.25813382640512345
-0.27386369399082633
-0.28811334287487617
-0.30067849179130474
-0.3113826033711493
-0.320077671434983
-0.3266443801956923
-0.33099176977100303
-0.3330565270921229
-0.33280200397872967
-0.33021704683725867
-0.32531470638356363
-0.31813088164033193
-0.30872294041482945
-0.2971683484258612
-0.28356333094885167
-0.2680215839349309
-0.2506730456713707
-0.2316627348511595
-0.2111496561185074
-0.18930576951200936
-0.1663150155348369
-0.14237238266470598
-0.1176829988107692
-0.09246122236948147
-0.06692970197357405
-0.04131836664308725
-0.01586329978603026
0.009194558537377422
0.03361094611245879
0.05714012393612203
0.0795371139706094
0.10056041457329533
0.11997527631777215
0.13755760866677716
0.15309856232153024
0.16640978953651156
0.17732932274020202
0.1857279299898172
0.19151570686802688
0.19464855533923572
0.19513409239707147
0.19303644085454466
0.18847929987440737
0.18164669248090798
0.17278085689623962
0.16217689723284281
0.15017403681401523
0.13714361326690422
0.12347429597692947
0.1095553593575067
0.09575916485296843
0.08242423791277244
0.06984041887717564
0.05823747351089237
0.04777824858201369
0.03855696797913743
0.030602649521075498
0.023886986561495592
0.01833550487151689
0.013840482160283659
0.010274064714238737
0.00750022512224175
0.005384604906543229
0.0038017654042915173
0.002639816630569589
0.0018027241869984288
0.0012107685192954331
0.0007996326778594167
0.0005183479408899524
0.00032540814421341233
0.00017895187474178088
7.621547555609307e-06
-1.863737178535999e-07
-2.5601311301074732e-05
-0.00010590889594122728
-0.00029824949203226416
-0.0006906165562741317
-0.0014059821823433297
-0.0026028716566726872
-0.004471470895397609
-0.007225151041187814
-0.01108803642093516
-0.016279864396252557
-0.022999774544618698
-0.03141076897462918
-0.04162641832009207
-0.05370101190809466
-0.06762385607293528
-0.0833179060255626
-0.10064245393992685
-0.1193992431183775
-0.1393411603871632
-0.1601825754205538
-0.18161042658746937
-0.2032952674307003
-0.22490165215865515
-0.24609742143108623
-0.2665616265131187
-0.2859909837026596
-0.304104872673584
-0.32064897937087433
-0.3353977384241047
-0.34815575670755067
-0.35875840499423467
-0.3670717550764166
-0.372992021034263
-0.3764446402110602
-0.37738310535303654
-0.37578763658891295
-0.3716637617719673
-0.3650408567463895
-0.35597068336611437
-0.34452595229981287
-0.3307989293451105
-0.3149000976395405
-0.2969568833047722
-0.2771124482603944
-0.25552455082986314
-0.23236447203458532
-0.20781600288246802
-0.1820744852829149
-0.15534589624661407
-0.1278459615300005
-0.09979928061417158
-0.07143843960046226
-0.043003081995323954
-0.0147388992275259
0.013103507004688734
0.04026994968230487
0.06650424002116168
0.0915501130287848
0.11515358865734937
0.13706586784122832
0.15704686040038499
0.17486942727352073
0.19032438830202256
0.20322629472298578
0.21341989002469045
0.22078708401647212
0.22525414711712555
0.22679870437574362
0.2254559865068538
0.22132369787884526
0.2145648111910788
0.20540761701211271
0.19414246004653204
0.181114790586304
0.16671444454326084
0.1513614203487867
0.13548881356907788
0.11952395570579238
0.10386912847496178
0.08888343099289657
0.07486741113764211
0.06205189644021289
0.050592066853511565
0.04056723625854376
0.03198613163250192
0.024796793634342867
0.0188996955030117
0.014162390938543004
0.010434004473332183
0.007558148894437204
0.0053833105139833295
0.003770266422802167
0.002596570557854151
0.0017584756875175598
0.0011707712058871783
0.0007647514266003964
0.00048323924521802037
0.0002666669002819346
1.1305612194947618e-05
-3.6293451784457555e-07
-4.5350566914936915e-05
-0.0001805353155718599
-0.0004918389837577152
-0.0011057992796809182
-0.0021918217670583518
-0.003959242948239528
-0.006648612612818781
-0.010517774633280332
-0.015824191993354296
-0.022805536511888796
-0.03166076064987078
-0.04253369404778871
-0.05550074095336753
-0.07056361853720075
-0.08764740050035756
-0.10660352622768667
-0.1272169780335375
-0.14921655201508827
-0.17228704953988597
-0.19608226797146544
-0.22023782797082528
-0.24438309416336643
-0.2681516843303381
-0.2911902872486327
-0.3131656997835429
-0.3337701394296435
-0.3527249874588416
-0.36978317449603804
-0.3847304425006658
-0.39738571388798627
-0.40760077869942185
-0.4152594818920023
-0.4202765608153511
-0.4225962518502181
-0.4221907574640778
-0.41905864177602287
-0.41322320435531434
-0.4047308680362842
-0.3936496063126726
-0.3800674285461122
-0.3640909359706588
-0.345843957582704
-0.3254662718991645
-0.3031124178219506
-0.278950595175932
-0.2531616527148428
-0.22593815841838016
-0.1974835436822997
-0.1680113094902391
-0.13774427878839274
-0.10691387495119341
-0.07575940125229226
-0.044527290398490564
-0.013470286158663214
0.01715348935068738
0.047081639245764285
0.07604883445975917
0.10378847609219975
0.13003477072846784
0.1545253221326671
0.17700434756515723
0.19722662231782553
0.2149622369088091
0.23000221247022157
0.242164956601572
0.2513034517430201
0.25731295190356346
0.2601388274207233
0.2597840535872895
0.25631570605208664
0.24986972756275658
0.24065319275958172
0.22894334416005063
0.21508281986264668
0.19947074656413322
0.1825497195243038
0.1647891066566481
0.14666555381123914
0.1286419770660035
0.11114664316525427