# vtk DataFile Version 4.1 
COMMENT
ASCII
DATASET STRUCTURED_POINTS 
DIMENSIONS 100 100 1 
ORIGIN 0 0 0
SPACING 0.12693303650867893 0.12693303650867893 0 
POINT_DATA 10000
SCALARS U double 1
LOOKUP_TABLE default
0.0
0.0
0.0
0.0
0.0
0.0
0.0
0.0
0.0
0.0
0.0
0.0
0.0
0.0
0.0
0.0
0.0
0.0
0.0
0.0
0.0
0.0
0.0
0.0
0.0
0.0
0.0
0.0
0.0
0.0
0.0
0.0
0.0
0.0
0.0
0.0
0.0
0.0
0.0
0.0
0.0
0.0
0.0
0.0
0.0
0.0
0.0
0.0
0.0
0.0
0.0
0.0
0.0
0.0
0.0
0.0
0.0
0.0
0.0
0.0
0.0
0.0
0.0
0.0
0.0
0.0
0.0
0.0
0.0
0.0
0.0
0.0
0.0
0.0
0.0
0.0
0.0
0.0
0.0
0.0
0.0
0.0
0.0
0.0
0.0
0.0
0.0
0.0
0.0
0.0
0.0
0.0
0.0
0.0
0.0
0.0
0.0
0.0
0.0
0.0
-6.513464462979775e-13
3.194758940993684e-10
3.552153262437544e-09
2.021462590727886e-08
8.257174884647259e-08
2.7309181803708686e-07
7.762403398202564e-07
1.9636555389231497e-06
4.522490218680477e-06
9.634180454610859e-06
1.9205805756061712e-05
3.614874640745572e-05
6.469029575800429e-05
0.00011069450216551518
0.00018196032341112075
0.000288459691914144
0.000442476525969024
0.0006586107557298037
0.0009536190673777007
0.0013460756336528773
0.0018558503614738776
0.002503417558022688
0.003309022695860395
0.004291747579700223
0.005468523450401279
0.006853146636424534
0.008455352021741115
0.010279996068787723
0.012326394040404623
0.014587846305394728
0.017051377225965766
0.01969769815766678
0.02250139449019844
0.025431326191941807
0.02845122254542335
0.031520444998983474
0.034594887420112255
0.03762798044367671
0.04057176584862488
0.043378007660617224
0.0459993086066537
0.048390203271794476
0.05050820247932233
0.05231476673099631
0.05377618976177259
0.05486437621372278
0.05555750002403941
0.05584053233707498
0.05570562964998977
0.05515237461142894
0.05418786358823541
0.05282663699518877
0.051090450629024745
0.04900788897212632
0.04661382461328485
0.04394873136694254
0.04105786194607068
0.03799030358792537
0.034797926273718076
0.0315342378183034
0.028253158449142772
0.025007725796197495
0.021848741756194136
0.018823378432299448
0.015973773971964658
0.013335671587512988
0.01093718399174682
0.008797794290841597
0.0069277226571698
0.005327784188023979
0.00398982853154938
0.0028977850584037874
0.002029248212524651
0.001357445950076955
0.0008533646997775104
0.00048777858529459986
0.00023295848055508413
6.391099174419592e-05
-4.09031013151734e-05
-9.932592714068398e-05
-0.00012562370870775746
-0.00013083575572295637
-0.000123228299706615
-0.00010876651622197876
-9.155844189961284e-05
-7.425460149001173e-05
-5.8401766400709435e-05
-4.4751502392736915e-05
-3.352122712754974e-05
-2.460375937001649e-05
-1.7723478261305047e-05
-1.2542206418641846e-05
-8.723016480986888e-06
-5.963012897748587e-06
-4.006042578977933e-06
-2.6439553606758733e-06
-1.7115071445017424e-06
-1.0746975980553204e-06
-5.977327352635328e-07
-2.607724664976583e-08
-1.3375590181108829e-12
1.11350334491193e-09
1.0002373304770237e-08
5.0216890117605605e-08
1.8696028625128625e-07
5.731948699972316e-07
1.526019889185312e-06
3.6411622919638473e-06
7.949906468009403e-06
1.6116767178863832e-05
3.066826695043729e-05
5.52345007314645e-05
9.477733571129789e-05
0.00015577374813238065
0.0002463212902844917
0.0003761357558350578
0.0005564187395784546
0.0007995841537509749
0.001118846420820656
0.0015276872026031318
0.002039230294404821
0.002665564115564096
0.003417056956452773
0.004301711299765879
0.00532460024551758
0.006487421994280197
0.007788198522220547
0.009221133249810312
0.010776630911562283
0.012441472084280302
0.014199125786597122
0.016030176781423416
0.017912839944726158
0.019823532280546043
0.021737473614391344
0.02362928928466557
0.02547359179271324
0.02724552286530437
0.028921242257689956
0.030478354473054553
0.031896269069682154
0.033156494132454514
0.03424286564557798
0.03514171783614085
0.035842001039264486
0.03633535428655051
0.036616139696881156
0.03668144493997347
0.03653105866972111
0.03616742205144831
0.03559555755937896
0.03482297439750402
0.033859548578489954
0.03271737532067174
0.0314105924252533
0.029955175972013172
0.02836871398971626
0.026670169122365205
0.024879646371854715
0.023018184611089575
0.021107588094956692
0.019170304265534992
0.01722933580072414
0.015308149934287134
0.013430522202500557
0.011620234208503652
0.009900546716690065
0.008293399288321663
0.006818347732692936
0.00549133199855864
0.00432344930874542
0.0033199625789638192
0.0024797764909077237
0.001795550009134359
0.0012544930446108501
0.0008397470871163152
0.0005321192168312607
0.0003118677471396602
0.00016024839907475137
6.061604750642801e-05
-9.939592220329034e-07
-3.575425658637244e-05
-5.2267596983073374e-05
-5.696032671635535e-05
-5.4511072485769706e-05
-4.823292398795168e-05
-4.0382120340794405e-05
-3.2402058832585416e-05
-2.512335683180483e-05
-1.893549437946864e-05
-1.3934648361581706e-05
-1.0044731620147482e-05
-7.107642141260416e-06
-4.942538315868925e-06
-3.3787745760817195e-06
-2.269925869118602e-06
-1.495889776722857e-06
-9.556346777466237e-07
-5.390253650378938e-07
-2.406032260617598e-08
-1.4158072956138676e-12
3.6332695276845796e-09
2.8730537530831464e-08
1.3336233139330472e-07
4.6893387781385185e-07
1.3742795016322432e-06
3.525107332794423e-06
8.150005522249565e-06
1.731722644251946e-05
3.4285949787720296e-05
6.390298169243157e-05
0.00011301289701295149
0.00019083882715257466
0.00030928461964462847
0.0004831084990180163
0.0007299242402486299
0.001069997764961798
0.0015258235749464287
0.002121484470405882
0.0028818172007285124
0.0038314238100955276
0.004993581649737223
0.006389113160219425
0.008035279134311879
0.009944756491750514
0.012124754420085085
0.014576312213447799
0.017293809590700832
0.020264706997326368
0.02346952053690376
0.026882024637272937
0.03046966594625737
0.03419416460031646
0.03801227399319495
0.0418766673666966
0.04573691868666293
0.049540546004176705
0.053234087450259995
0.0567641827914237
0.06007863673446874
0.06312744361112602
0.06586375645104763
0.06824478657562773
0.07023262257657661
0.07179495978721173
0.07290573305120958
0.07354564670996533
0.0737025962532179
0.07337197601429106
0.0725568666711287
0.07126809520709265
0.06952415853164354
0.06735100041857567
0.06478163022366586
0.06185557166402427
0.05861813170540903
0.055119484436067005
0.0514135738250758
0.047556853189400575
0.043606897775033474
0.039620948235289874
0.03565446306047326
0.031759771363967106
0.027984917212497778
0.024372767577337254
0.020960416854451637
0.017778867434009367
0.014852911314973958
0.012201100907015129
0.00983569602183584
0.007762518014913405
0.005980724620406868
0.004482615739878323
0.003253654558806516
0.0022729041306733633
0.0015140183725991573
0.0009467983284778107
0.0005391685190553658
0.0002592987661242159
7.754220027613313e-05
-3.209881837152588e-05
-9.114599736387847e-05
-0.00011646848911180538
-0.00012063012429981156
-0.00011255703716627139
-9.831716189143168e-05
-8.185397708783718e-05
-6.55912742974199e-05
-5.089192317100407e-05
-3.839328419143454e-05
-2.825345978906235e-05
-2.0335905988526857e-05
-1.4347862356112215e-05
-9.939436047873156e-06
-6.767532452514814e-06
-4.529999550942477e-06
-2.9763214229658884e-06
-1.8966564886916284e-06
-1.0668120185234933e-06
-4.68436396634864e-08
4.439813228666344e-12
1.0722828533787652e-08
7.606844295512337e-08
3.2787519427547463e-07
1.088074682819155e-06
3.038174147789969e-06
7.471500918463782e-06
1.6634551946362967e-05
3.41494382738457e-05
6.549176053724952e-05
0.00011848032503511601
0.00020372047920348346
0.00033493481457954634
0.000529115836138984
0.0008064456703609379
0.0011899470179728242
0.0017048548911332154
0.0023777267499128013
0.0032353356661113893
0.004303413604934995
0.005605327185172671
0.007160774885274254
0.008984592393644611
0.011085742578055214
0.013466550148469682
0.01612222078430632
0.019040662697127432
0.022202607523948224
0.02558200890041298
0.029146682306678585
0.032859139490462236
0.036677565091052716
0.04055688171193988
0.04444985199591791
0.048308171433636894
0.05208351280238415
0.055728491429693355
0.059197529144359745
0.062447603190523664
0.06543887406801381
0.0681351929061739
0.0705044943983304
0.07251908545301292
0.07415584257570157
0.07539633266029598
0.07622687245626737
0.07663854161233817
0.07662716300310048
0.07619326212560616
0.07534201478431653
0.07408318910528158
0.07243108413940363
0.07040446291375403
0.06802647276672531
0.06532454023839002
0.062330221956536855
0.059078987471848844
0.0556099059342369
0.05196520746898657
0.048189694077544566
0.04432998572325628
0.04043360590256644
0.03654793638183841
0.03271909891109782
0.028990845523631775
0.025403549516105964
0.021993378369632836
0.018791694707361084
0.015824677578599334
0.013113099509362533
0.010672157163496397
0.00851125618160974
0.006633703219076312
0.005036349888611918
0.0037093329107454483
0.002636119446277568
0.0017940594191855038
0.001155555111789164
0.000689804308199973
0.00036490796241745165
0.00015001748821862244
1.71745602270441e-05
-5.742404364055288e-05
-9.285368326126698e-05
-0.00010353297086251465
-9.976552009076842e-05
-8.85267645145614e-05
-7.429068796426289e-05
-5.9758414965700066e-05
-4.6428756330501236e-05
-3.5011522335344805e-05
-2.5715607210332166e-05
-1.8449048608543317e-05
-1.2959247180259922e-05
-8.92991238292659e-06
-6.0434247013609954e-06
-4.013169135967827e-06
-2.5835024138367966e-06
-1.4642674795818426e-06
-6.44241569245123e-08
3.532679296028334e-11
2.9212374922157336e-08
1.8933932506481542e-07
7.650590411508833e-07
2.41173800229108e-06
6.449274126128017e-06
1.5274670070182215e-05
3.288879847283947e-05
6.550964627892537e-05
0.00012221993014675578
0.000215576267773042
0.0003620947348282682
0.0005825269220420243
0.0009018526792826813
0.0013489393631463396
0.001955849292036667
0.002756812617988709
0.003786916906016591
0.005080592845503874
0.00666999440859185
0.008583379743509492
0.010843596145535076
0.013466760019667236
0.016461203277984147
0.019826734039359584
0.023554234770027167
0.027625597694823326
0.0320139773676715
0.03668432492663519
0.04159415826344692
0.04669451698467246
0.05193105004951145
0.057245186473074694
0.06257534449960038
0.06785814120688186
0.07302957173914723
0.07802613458322953
0.0827858859906202
0.08724941247554004
0.0913607151143605
0.09506800308818836
0.09832439659218255
0.10108854098309003
0.10332513498029036
0.1050053760122585
0.10610732553997639
0.10661619650738026
0.10652456406698738
0.1058324994946503
0.10454762582276957
0.10268509226747807
0.10026746308583011
0.09732451515736643
0.09389293741576753
0.09001592431814728
0.08574265487262853
0.08112764840313784
0.07622998835971118
0.07111240645308722
0.06584022195218393
0.060480136343746604
0.05509889325887131
0.04976182899399208
0.044531360360348396
0.03946548195579513
0.03461636900584499
0.030029196276384656
0.025741278559018078
0.021781606716127926
0.018170795339235518
0.014921384649167929
0.012038371895342228
0.009519812577428267
0.0073573499093558615
0.005536605290034889
0.0040374724156658015
0.0028344620522252287
0.0018972968746009896
0.0011919249552024037
0.0006820075564883585
0.0003307789527910603
0.00010303273645078096
-3.308274920497294e-05
-0.00010474889812171969
-0.00013381373904417776
-0.00013679466524867652
-0.00012541665975983237
-0.00010747178030877178
-8.777666343219038e-05
-6.905556109914745e-05
-5.2654317727385405e-05
-3.9063034999109305e-05
-2.8272082015720827e-05
-2.000409661264621e-05
-1.3861861991696436e-05
-9.42000252565736e-06
-6.274907440122564e-06
-4.049368047573312e-06
-2.2974299559526844e-06
-1.0054889007327147e-07
1.4814552876356593e-10
7.421096477461105e-08
4.4488082452776603e-07
1.6958757470770556e-06
5.097902964218633e-06
1.308897133310259e-05
2.9907513387562852e-05
6.234816028799809e-05
0.0001205764671101249
0.0002189092583013886
0.0003764484878487642
0.0006174536246696744
0.0009713525846595208
0.0014723226722200891
0.0021584163308904993
0.0030702551778301807
0.00424936261087118
0.005736243747126277
0.007568346864598102
0.009778050504224872
0.012390814996867226
0.01542361851634928
0.0188837693626375
0.022768152273156952
0.027062931358731352
0.031743699415312826
0.036776035612951154
0.04211641259224094
0.047713380463361994
0.053508948892579546
0.05944008852192281
0.06544027814925388
0.07144103297828208
0.07737336042696018
0.08316910220084472
0.08876213356339127
0.09408940219282577
0.0990917991833363
0.10371486333006397
0.10790932671948746
0.11163151485320902
0.11484361818002634
0.11751385416713078
0.11961654009489982
0.12113209679467225
0.12204700272641603
0.12235371624139361
0.1220505816841599
0.12114173221201899
0.1196369988722271
0.1175518315845562
0.11490723323804528
0.11172970315994683
0.10805118083709647
0.10390897512467498
0.09934565851575289
0.09440890071980983
0.0891512112722606
0.08362955776267691
0.07790482529660961
0.07204108501343406
0.06610464619087675
0.06016287922446777
0.054282816996995414
0.048529570369273606
0.04296462819950016
0.03764414867905416
0.03261737839298916
0.027925347290446996
0.023599971206878574
0.019663643803297118
0.01612932236457547
0.013001025036647323
0.010274588317946734
0.007938510494831404
0.005974744107715237
0.004359390401906593
0.003063358509956746
0.002053135207698165
0.001291826425649711
0.0007405640391051513
0.00036024161476021644
0.00011340114418162814
-3.4002160993675494e-05
-0.00011123796641037553
-0.00014203988542600552
-0.0001445026778508063
-0.000131548878897656
-0.00011177435778419663
-9.044973308176604e-05
-7.048651254158359e-05
-5.324679594124442e-05
-3.915088557392891e-05
-2.809398896374063e-05
-1.9712050629495815e-05
-1.354104180385615e-05
-9.101882951775504e-06
-5.914890645378287e-06
-3.3686020115901202e-06
-1.470761261233336e-07
4.916765991542683e-10
1.7717796067719528e-07
9.915957429665268e-07
3.5849439409484367e-06
1.0312943201331551e-05
2.548988983407215e-05
5.6306438646690794e-05
0.00011384730447676563
0.00021409380741662433
0.00037876820370172875
0.0006358698320257052
0.0010197705523876366
0.0015707770584470805
0.002334124230159867
0.0033584276373446282
0.0046936845666599065
0.006388962567581309
0.008489946147954723
0.011036522952648785
0.014060581026820307
0.01758416194560636
0.021618075902996005
0.026161040278750578
0.03119935848869176
0.036707115820982565
0.04264683678697085
0.048970526026882545
0.055621002328398055
0.06253343201425068
0.06963697223224033
0.07685644453551664
0.08411397249561924
0.09133053203968626
0.09842737816921132
0.10532732552676631
0.1119558721659921
0.1182421654563699
0.12411981622779845
0.1295275721640121
0.13440986436655838
0.13871724228715776
0.14240671224230925
0.14544199383854098
0.14779370716478307
0.14943950180742252
0.15036413680884514
0.15055951875557755
0.15002470332519469
0.1487658638700667
0.1467962289568392
0.144135989165138
0.14081217180399955
0.13685848044259438
0.13231509418619655
0.12722841939227103
0.12165078399129844
0.11564006179754337
0.10925921130668532
0.10257571074403875
0.0956608689731526
0.08858899093858916
0.08143637752528894
0.07428014434966167
0.06719685365962276
0.06026096988198052
0.05354317350192781
0.047108599315565415
0.04101510015002416
0.035311668587293996
0.03003716640135297
0.025219502853103735
0.020875361010927452
0.017010497369643742
0.01362054840316848
0.010692193907828922
0.008204480585130082
0.006130121510781511
0.0044366590324962625
0.0030874861688335946
0.0020428219490920955
0.0012607848856707232
0.0006986804942210577
0.00031452104240117844
6.866805693053724e-05
-7.461473593880278e-05
-0.00014594338343051704
-0.0001701241745439181
-0.00016607042410484262
-0.00014726880249564157
-0.0001226329272186694
-9.753578549401995e-05
-7.482898219516305e-05
-5.571605128915245e-05
-4.041954852432447e-05
-2.8641891336819233e-05
-1.9854401914565455e-05
-1.345459724900174e-05
-8.80231212047992e-06
-5.031680119336942e-06
-2.1883811945917029e-07
1.4180139642364233e-09
3.999270559348161e-07
2.104693953672566e-06
7.2478017217301704e-06
2.0011947570085167e-05
4.771917231717729e-05
0.00010207866558378575
0.0002004536561775337
0.00036696615230422266
0.0006332437895574354
0.0010386315753457003
0.0016297413390799272
0.0024592851304149625
0.003584223179191056
0.005063338411917094
0.006954415445467029
0.009311243663745696
0.012180677459768707
0.015599972855935338
0.019594583294575644
0.024176545709759484
0.02934352925094617
0.035078560937162356
0.04135039127825246
0.048114422658895525
0.05531409604192532
0.0628826173996301
0.07074490285517603
0.07881962851536947
0.08702128469199504
0.09526215194363025
0.10345413573558969
0.11151041560925236
0.11934688221735403
0.12688335058867767
0.13404455015443464
0.14076090136843414
0.14696909539364184
0.1526124976612163
0.1576413985487183
0.1620131353879727
0.16569210987813437
0.16864972406331144
0.1708642565840165
0.1723206991047242
0.17301057076825155
0.17293172628755654
0.1720881708667251
0.17048989251925112
0.16815271947176788
0.16509820713981924
0.16135355557251888
0.15695155423261306
0.15193054648710222
0.14633440126400035
0.14021247409189508
0.13361953438797644
0.12661563072060433
0.1192658612929686
0.1116400136477017
0.10381203626782148
0.09585930614953371
0.08786166147247562
0.07990017825402647
0.07205568550563388
0.06440703596688033
0.05702917942359952
0.049991121868951896
0.043353892672325985
0.03716867633738293
0.031475284962798604
0.02630114062600095
0.021660895089909447
0.017556737287385712
0.01397933908422517
0.010909291146356224
0.00831881362432587
0.006173515756628904
0.004434031714644587
0.0030574598848286463
0.001998641169941634
0.0012113841855691631
0.0006497501842585403
0.0002694458238518062
2.9266766954593507e-05
-0.00010756223384191111
-0.0001723496851183177
-0.00019037177257170105
-0.0001808567155776393
-0.0001574793140557512
-0.00012922615687238685
-0.00010144129285719229
-7.686860172586535e-05
-5.655651524155001e-05
-4.055722964668012e-05
-2.8410594715520453e-05
-1.9433145403541246e-05
-1.2812188625985366e-05
-7.356246214692458e-06
-3.188372425189951e-07
3.694663869600476e-09
8.575801018119934e-07
4.268455446496584e-06
1.4051673708622694e-05
3.733396258485648e-05
8.605394761970777e-05
0.00017854251433124083
0.00034095602679646176
0.0006083100986715957
0.001024878751039267
0.00164378454450545
0.0025256993409092225
0.003736685802529256
0.0053453172551717444
0.007419300700435428
0.010021882299644565
0.01320833114118739
0.017022776953949617
0.021495627550260993
0.026641722464482757
0.03245930187881143
0.03892979497324219
0.046018367484298564
0.05367511970353689
0.061836795549896434
0.07042885025255036
0.0793677262099485
0.08856320024298985
0.09792068682869043
0.10734340725048168
0.11673436075703929
0.12599805836958167
0.13504200131302974
0.14377790330882162
0.15212266890877837
0.15999914887539435
0.16733669882337082
0.17407156958415848
0.18014715773913592
0.1855141431549079
0.1901305377326358
0.19396166643432672
0.19698009834398958
0.19916554232718292
0.20050471894286523
0.20099121773311776
0.20062534690204115
0.19941398067599347
0.19737040825115648
0.19451418708172122
0.19087100220998904
0.1864725322263552
0.18135632108802038
0.1755656532254135
0.16914942693961582
0.16216201789766743
0.15466312050116865
0.1467175501011164
0.13839498369954528
0.1297696113749758
0.12091966589292887
0.11192679475258623
0.1028752384271599
0.09385078209695315
0.08493945716500813
0.07622598466526599
0.06779197639724346
0.05971394150394565
0.05206118486733085
0.04489372511060867
0.038260396776515944
0.03219732286732413
0.026726938692118167
0.021857706952260764
0.017584586135481445
0.01389021044988313
0.010746632879514908
0.008117403626172253
0.005959730807111588
0.004226509804240898
0.002868099816096274
0.0018338371436219104
0.0010733615898173697
0.0005378613740769806
0.00018130448405484284
-3.835848515851444e-05
-0.00015812181725133824
-0.00020913283554953123
-0.00021631762245635962
-0.00019849054069567156
-0.0001689150608404677
-0.00013619473615190535
-0.00010532433130982323
-7.87322542580101e-05
-5.71863103878506e-05
-4.049193999678449e-05
-2.7955870260817564e-05
-1.8574299110667528e-05
-1.071258575415186e-05
-4.6250087845272733e-07
8.880187548940954e-09
1.7540153335503799e-06
8.295880091032698e-06
2.6187396169709937e-05
6.710070527237441e-05
0.00014976304882851143
0.00030179376686316234
0.0005611161379763327
0.0009766328927730916
0.001607924974066926
0.002523851518553995
0.003800072513724835
0.005515657533501479
0.007749060012836055
0.010573809416671786
0.01405429572472836
0.01824199385141367
0.023172409591511265
0.028862937677992653
0.0353117221192177
0.042497513210695226
0.05038043515856848
0.05890351951890603
0.06799482485709447
0.07756995087994151
0.08753476206915599
0.09778815652520195
0.10822474499033073
0.11873733798742134
0.12921917173799022
0.13956583318541224
0.14967686934528976
0.1594570856047929
0.16881755152013636
0.17767634165161092
0.18595904385398052
0.19359906913997474
0.2005377966650231
0.2067245853426919
0.21211668074120282
0.216679042717384
0.22038411604758704
0.22321156331642206
0.22514797662104682
0.22618658226242874
0.22632695049523244
0.2255747205322794
0.22394134926761833
0.22144389050481067
0.21810480976062752
0.21395183786272778
0.2090178644741078
0.20334087025562295
0.19696389351918844
0.18993502383447222
0.18230741105993042
0.17413927365106902
0.165493884913281
0.15643951029675435
0.1470492632303601
0.13740084192268953
0.12757610581400577
0.11766044895896477
0.10774192975724553
0.09791012344064284
0.08825467688388965
0.07886356576871748
0.06982108255363347
0.061205619759648146
0.05308735472736565
0.04552598461973929
0.038568696298910514
0.032248574307106696
0.02658364026378841
0.021576670268861474
0.017215852834221224
0.013476239482396093
0.010321826395310117
0.007708018253255557
0.0055841915945138215
0.0038961071118161408
0.002588008596958625
0.0016043598910723588
0.0008912690903856075
0.0003976970198335562
7.653217971797923e-05
-0.00011444789600558559
-0.00021178332819823316
-0.00024580895887306475
-0.00024050142832263046
-0.00021374318622812907
-0.0001779704064731292
-0.00014109702499884874
-0.00010756422488103338
-7.93636559337688e-05
-5.691386174956098e-05
-3.970389761912752e-05
-2.6593963417638914e-05
-1.5404843533344222e-05
-6.624573887962081e-07
1.9946766748170013e-08
3.433578451804033e-06
1.5492117367792243e-05
4.701754686774937e-05
0.00011641375489250527
0.000251978699220913
0.0004938066598490919
0.0008948616889017517
0.001520891245543621
0.0024489950571064956
0.003764849101564586
0.0055587718129171204
0.007920974993247277
0.01093644083108948
0.014679897627491171
0.019211332654037943
0.024572394178180267
0.030783915674440932
0.03784466486555389
0.04573129748146993
0.05439939455217391
0.06378539071536929
0.07380916167033137
0.0843770291002565
0.0953849555404868
0.10672173268746186
0.118272007270101
0.129919032426486
0.14154707453837728
0.1530434422777855
0.16430013434698165
0.1752151244549935
0.18569331682005835
0.1956472138695738
0.20499734107944148
0.21367247337518203
0.22160970443932215
0.2287543956811356
0.23506003635093103
0.24048804092332599
0.24500750483425396
0.24859493517319048
0.2512339691193252
0.25291508979478616
0.25363534675923977
0.253398086524187
0.2522126971392541
0.2500943700036154
0.2470638814818836
0.24314739654343298
0.23837629636972693
0.2327870315370767
0.22642100180821703
0.2193244625554726
0.21154845617329673
0.20314876430012158
0.1941858730702788
0.18472493884241603
0.17483573592005894
0.16459256090954003
0.15407406102916837
0.14336294667933205
0.13254554301851373
0.12171113256824365
0.11095104259568848
0.10035743885421496
0.09002180270558015
0.08003309277947783
0.07047562541803318
0.061426749149852446
0.05295443430353089
0.04511494393649373
0.03795078794984573
0.03148917777443889
0.02574118344487286
0.020701740930695125
0.016350566016967567
0.012653913958825437
0.00956700505081585
0.007036844923589315
0.005005131349335573
0.003410969070490803
0.0021932018731337572
0.0012922876516941533
0.0006517481275193381
0.00021928620800709542
-5.2333589221740825e-05
-0.00020459161591440718
-0.0002727192995548297
-0.0002854633740991595
-0.00026517136726533726
-0.00022822394366939824
-0.00018577722308856477
-0.00014471778835202612
-0.00010869703360888655
-7.9105757640572e-05
-5.585377630457078e-05
-3.7758194462352044e-05
-2.1979785768588818e-05
-9.412198565742602e-07
4.224931032830299e-08
6.452321850057192e-06
2.7864587052001747e-05
8.149274438423905e-05
0.00019531187961455292
0.0004105594763823969
0.0007833624535435541
0.0013850144901833786
0.002300624507887564
0.0036260925412766065
0.005463615384106062
0.007916133383517213
0.0110812660612928
0.015045330888310093
0.019877998711243784
0.02562802860125404
0.032320370930724575
0.039954759268448985
0.04850575484387411
0.05792408048637779
0.06813899426730526
0.07906140872624794
0.09058745541140628
0.10260221834605047
0.11498340404212032
0.12760477004673382
0.14033919038769022
0.1530612884564146
0.16564961189012434
0.17798835802400417
0.1899686822664469
0.201489636243239
0.2124587893631079
0.22279258844241956
0.23241650702071387
0.24126503060587198
0.24928151759178982
0.2564179689305466
0.2626347334316459
0.2679001701488465
0.27219028483838154
0.2754883539232713
0.27778454667853286
0.27907555431655384
0.27936423314210806
0.27865926781202277
0.27697485984510434
0.27433044577867105
0.27075044867743797
0.26626406600497693
0.2609050961122638
0.2547118047237109
0.24772683173529125
0.23999713728292854
0.23157398426103254
0.2225129521087342
0.21287397355507462
0.2027213819557522
0.19212395175442817
0.18115490847862195
0.16989187775762435
0.15841673563787065
0.14681531583030355
0.13517692468800843
0.12359361324854408
0.1121591593682753
0.10096772362516682
0.0901121618022642
0.07968200528193736
0.06976115838775553
0.06042540678250848
0.05173987943077688
0.04375665166598102
0.03651270924776757
0.030028502028580647
0.024307290807534132
0.01933542640968681
0.015083598760531594
0.011508969696345324
0.008557980912316767
0.00616953737032216
0.0042782320593352935
0.002817311346708575
0.0017211718241886525
0.0009273008539305357
0.00037768578566798705
1.9788047708520607e-05
-0.0001928067456192401
-0.0002999842360763705
-0.0003349175859051113
-0.0003241231311066822
-0.00028778510913686733
-0.0002403544933865592
-0.00019138003176469808
-0.0001464813361975791
-0.00010833815621674309
-7.753330907008095e-05
-5.296260139425494e-05
-3.100327454547027e-05
-1.3218552568767199e-06
8.494609258967933e-08
1.1670637294295796e-05
4.8376625523887576e-05
0.00013661427358942256
0.00031743031680928063
0.0006488365398376824
0.0012066537608705979
0.0020834098829017426
0.0033851699885329113
0.005226498631243249
0.007724036574794203
0.010989364644861067
0.015121899812663823
0.02020252388308121
0.026288506001039602
0.03341008257812471
0.04156884159393292
0.0507378572980311
0.060863361040975596
0.07186762741793998
0.08365270420875563
0.0961046133398468
0.10909768666451752
0.12249876114064115
0.13617102992531824
0.14997741820609756
0.16378341751858738
0.17745936529474515
0.1908821956450282
0.20393671320962156
0.21651645600874933
0.22852421798527242
0.23987229995775997
0.2504825514035411
0.26028625689143164
0.26922391162561987
0.27724492151131813
0.2843072550563282
0.2903770675954917
0.29542831284132687
0.29944235254279256
0.3024075719078231
0.30431900621337055
0.30517798249072786
0.3049917791584766
0.30377330583817225
0.30154080522025895
0.2983175786705615
0.2941317372225839
0.28901597963937437
0.2830073993005005
0.276147321709941
0.26848117433856933
0.2600583901835353
0.2509323456773024
0.2411603322012863
0.2308035582125208
0.2199271756314169
0.20860031945834748
0.19689614348280965
0.1848918275020777
0.172668523033008
0.16031119579983028
0.14790831545114416
0.13555133756296853
0.12333392192794555
0.11135083648721729
0.09969650999046029
0.08846322004101852
0.0777389371246647
0.06760488860964499
0.0581329566443497
0.049383075042242236
0.04140083469884891
0.034215534711036624
0.027838916263501472
0.022264779464584845
0.017469606067673924
0.013414198864255563
0.010046217867833572
0.007303369964835888
0.00511692171025317
0.0034151779723976773
0.002126610886955168
0.0011824227453309031
0.0005184538517528548
7.646476634053104e-05
-0.00019509991366565695
-0.00034073618393522237
-0.0003977880215053369
-0.00039657951380770497
-0.00036075601876401286
-0.00030783530387505474
-0.0002499557401823271
-0.0001947728448077418
-0.0001464078104711175
-0.00010627725621577605
-7.342679535664807e-05
-4.3255191273604714e-05
-1.835841978499924e-06
1.629626423573087e-07
2.0366665322911074e-05
8.123298271095799e-05
0.0002219038633248044
0.000500577359985456
0.0009961003465279387
0.00180736173709148
0.003050150429817899
0.004851643259483468
0.0073430694160588564
0.010651366436593398
0.014890757717352219
0.020155139265425767
0.026511992652673656
0.03399828983078356
0.04261857715176139
0.05234516798345507
0.06312016944834266
0.07485893637946124
0.08745448668232894
0.10078241747722665
0.11470591440097887
0.1290805286701618
0.14375849054012033
0.1585924196464732
0.17343837278561414
0.18815823273535043
0.20262148617574754
0.21670646577426092
0.23030114383286493
0.2433035660875255
0.25562200788549844
0.2671749242288194
0.2778907526122616
0.2877076150439
0.2965729542960354
0.30444312991854694
0.3112829920597984
0.3170654455983333
0.32177101323624224
0.32538740370653824
0.3279090897520314
0.32933689972018054
0.32967762621756924
0.3289436550713247
0.32715261770746523
0.3243270698885802
0.3204941995130465
0.31568556585807067
0.3099368722649562
0.30328777384178024
0.2957817213151928
0.287465841697202
0.27839085590533136
0.2686110327946047
0.258184178074437
0.2471716550751844
0.23563843202714718
0.2236531471257642
0.21128817791931048
0.19861969532149618
0.18572767488943748
0.17269582931715444
0.15961141721044084
0.14656487546350608
0.13364921777077995
0.12095914216685225
0.1085897983055852
0.09663518252989406
0.08518615698504409
0.074328128159915
0.06413846854921086
0.054683818555590465
0.046017457646969906
0.038176975048740465
0.03118249016605666
0.025035660989645884
0.019719667505265014
0.015200265707655317
0.011427884840778982
0.008340605018509318
0.0058677313776321835
0.003933602782529323
0.0024612587924151114
0.001375643400573815
0.0006061338194371602
8.831701688473665e-05
-0.0002349407231987284
-0.00041300507973529094
-0.0004874132668497841
-0.0004921098592778774
-0.0004538917493864676
-0.00039301797029838445