# vtk DataFile Version 4.1 
COMMENT
ASCII
DATASET STRUCTURED_POINTS 
DIMENSIONS 100 100 1 
ORIGIN 0 0 0
SPACING 0.12693303650867893 0.12693303650867893 0 
POINT_DATA 10000
SCALARS U double 1
LOOKUP_TABLE default
0.0
0.0
0.0
0.0
0.0
0.0
0.0
0.0
0.0
0.0
0.0
0.0
0.0
0.0
0.0
0.0
0.0
0.0
0.0
0.0
0.0
0.0
0.0
0.0
0.0
0.0
0.0
0.0
0.0
0.0
0.0
0.0
0.0
0.0
0.0
0.0
0.0
0.0
0.0
0.0
0.0
0.0
0.0
0.0
0.0
0.0
0.0
0.0
0.0
0.0
0.0
0.0
0.0
0.0
0.0
0.0
0.0
0.0
0.0
0.0
0.0
0.0
0.0
0.0
0.0
0.0
0.0
0.0
0.0
0.0
0.0
0.0
0.0
0.0
0.0
0.0
0.0
0.0
0.0
0.0
0.0
0.0
0.0
0.0
0.0
0.0
0.0
0.0
0.0
0.0
0.0
0.0
0.0
0.0
0.0
0.0
0.0
0.0
0.0
0.0
3.6460461110461484e-13
-1.7883322276101136e-10
-2.025726539295538e-09
-1.1702801295340024e-08
-4.84888157527797e-08
-1.626440311614712e-07
-4.688986257197046e-07
-1.2033130613268044e-06
-2.812026221266427e-06
-6.079851827975698e-06
-1.2304401139378443e-05
-2.351725856649543e-05
-4.274792362745789e-05
-7.431932629942603e-05
-0.0001241565865088384
-0.00020008434452350906
-0.00031208344488086105
-0.0004724758296759095
-0.0006960076744322496
-0.0009998051579803615
-0.001403184455623675
-0.0019273068843403962
-0.002594680667386841
-0.0034285214765500164
-0.004451993743867934
-0.0056873628598112114
-0.007155094184357822
-0.008872937969802111
-0.010855039794547994
-0.013111114152212977
-0.01564571483960381
-0.01845763027188324
-0.02153942540486695
-0.024877145130095216
-0.028450187330779256
-0.032231347649885916
-0.036187032712951074
-0.040277634235237246
-0.0444580531810403
-0.04867836089124826
-0.052884582735873785
-0.05701958920794452
-0.061024079245600035
-0.06483764072601941
-0.06839987329348923
-0.07165155875450865
-0.07453586401231758
-0.07699956077729085
-0.0789942449832627
-0.08047753692640441
-0.08141424065022919
-0.0817774381182966
-0.08154949038887178
-0.0807229145079714
-0.07930110134519329
-0.07729883626226083
-0.07474258145590622
-0.07167047622177014
-0.06813200960331715
-0.06418731971989008
-0.059906077045911575
-0.05536591750301672
-0.05065040869318391
-0.045846562310874396
-0.041041949800607984
-0.03632153553578829
-0.03176440599561285
-0.027440632601314217
-0.02340854356815123
-0.019712679397168687
-0.01638265610134071
-0.013433060232926805
-0.010864365540916089
-0.008664720994409824
-0.006812347640464439
-0.0052782250019953545
-0.0040287577805686505
-0.003028180965843648
-0.0022405596166289875
-0.001631336188544107
-0.0011684479600413665
-0.0008230701940985623
-0.000570043880095418
-0.000388036415096044
-0.0002594750612538174
-0.00017029404982783127
-0.00010954471751255774
-6.892627070889002e-05
-4.229531865260144e-05
-2.5202676902574096e-05
-1.4489063423867606e-05
-7.953032355674868e-06
-4.090060257019519e-06
-1.8935231796194238e-06
-7.058059410552993e-07
-1.0878613269826287e-07
1.546335248740107e-07
2.3307464013698048e-07
1.9278749521299457e-07
8.410727348642377e-09
7.357571381979351e-13
-6.126309673684767e-10
-5.571335628209525e-09
-2.830354486099265e-08
-1.0664486268284476e-07
-3.309976092263849e-07
-8.924139990011247e-07
-2.157176047535636e-06
-4.77311089204194e-06
-9.809863907473626e-06
-1.8930758495361473e-05
-3.458819406661897e-05
-6.022859669179346e-05
-0.0001004877496661968
-0.0001613538897128935
-0.0002502750370704673
-0.00037618903446942956
-0.0005494596406483991
-0.0007817092477315007
-0.001085547501464341
-0.001474204229035278
-0.0019610835252501994
-0.002559262658459422
-0.0032809639435074822
-0.004137029537611435
-0.005136428241905668
-0.006285820138879323
-0.007589199795729592
-0.00904763248006808
-0.01065909106672659
-0.01241839471210619
-0.014317244472529944
-0.016344346232751893
-0.01848560781586908
-0.02072439503928999
-0.023041830706937938
-0.025417120932386274
-0.027827894555759645
-0.030250543503865635
-0.032660554500301565
-0.03503282532953612
-0.037341961694942416
-0.039562553418878856
-0.041669431180824196
-0.043637907074769874
-0.04544400391076817
-0.047064679326934866
-0.04847805137173118
-0.049663632233817485
-0.05060257623616388
-0.05127794711167423
-0.0516750080378517
-0.05178153609843743
-0.051588160995353516
-0.051088726206997
-0.050280669543304804
-0.04916541909136079
-0.04774879932303454
-0.04604143947152403
-0.0440591704031503
-0.04182338512789361
-0.03936132047837758
-0.03670619398387002
-0.0338971045885028
-0.030978586791978596
-0.027999706650329536
-0.02501261699926728
-0.022070555855432664
-0.019225373481921472
-0.01652479304688933
-0.01400971665616861
-0.011711946194133368
-0.009652667008437366
-0.007841932842893808
-0.006279212484164013
-0.004954858759909234
-0.003852196933703554
-0.0029498501201142197
-0.002223942475321233
-0.001649928172689262
-0.0012039392318536762
-0.0008636749154023499
-0.0006089320706690515
-0.0004218906000910561
-0.00028723906426979387
-0.0001921828362037542
-0.00012634733360284935
-8.158225326750879e-05
-5.168399600667215e-05
-3.2068955695256885e-05
-1.9438011388438247e-05
-1.1468007330925317e-05
-6.552544733105351e-06
-3.5989661649724436e-06
-1.8768456717504525e-06
-9.078963362330849e-07
-3.8697477711348134e-07
-1.2633586701150021e-07
-1.7656747628837686e-08
-5.722324873027397e-10
7.623764599112802e-13
-1.9573317182237753e-09
-1.5645726371574006e-08
-7.3453526633463e-08
-2.6138449071017075e-07
-7.756792652198466e-07
-2.015829336506383e-06
-4.724275520173487e-06
-1.0180313530781111e-05
-2.0450497837679063e-05
-3.869050488355096e-05
-6.948485467943439e-05
-0.00011920232685679008
-0.00019633770791450427
-0.00031180590496030945
-0.00047915332842637525
-0.0007146541361504801
-0.0010372652353071176
-0.00146842314596334
-0.0020316768700633283
-0.0027521625408151664
-0.0036559366302362653
-0.004769193833174589
-0.0061174026877622465
-0.0077243961459561045
-0.009611455625586508
-0.011796425798951361
-0.014292893955177867
-0.01710946278892742
-0.02024913952842764
-0.023708858000529964
-0.027479144036284455
-0.03154392893298407
-0.03588051077239375
-0.04045965939874097
-0.045245857832016775
-0.05019767079981783
-0.05526822982327146
-0.06040582375997796
-0.06555458373830826
-0.07065525185298224
-0.07564602367156835
-0.08046345536972287
-0.08504342701977745
-0.08932215405767001
-0.09323723910477276
-0.09672875598162345
-0.09974035677722014
-0.1022203910908536
-0.1041230239188503
-0.10540933503118786
-0.10604837807062921
-0.10601817215562162
-0.1053065928557674
-0.10391212373368891
-0.10184442528551117
-0.09912467648462023
-0.09578564681052767
-0.09187146493101102
-0.08743706450723313
-0.0825473067011451
-0.07727579956696425
-0.07170345134391745
-0.06591680176671189
-0.0600061686084727
-0.0540636262754715
-0.04818080709528329
-0.042446498909236755
-0.036944022976929974
-0.031748427905925324
-0.026923628487412435
-0.022519732905395017
-0.01857089878516359
-0.015094091370418885
-0.012089050700553642
-0.009539604593683929
-0.007416225959837463
-0.005679493899799513
-0.004283953505478413
-0.003181831853952212
-0.0023261646802732205
-0.0016730788129342322
-0.001183189510989357
-0.0008222407596729561
-0.0005612006890085942
-0.00037602370592182475
-0.00024723680770553957
-0.00015944099830978513
-0.00010077033125280107
-6.233086254305285e-05
-3.764200681441395e-05
-2.210865099746708e-05
-1.2552512764185281e-05
-6.822565229220879e-06
-3.4907110229589127e-06
-1.6263457079181535e-06
-6.362391222621449e-07
-1.5522409858523722e-07
2.394199803345975e-08
1.0253729284237877e-09
-2.3339849872141774e-12
-5.635904983056249e-09
-4.035639636718414e-08
-1.7577176954093025e-07
-5.899327863541e-07
-1.6671372222592122e-06
-4.151974685053633e-06
-9.366818260785082e-06
-1.949503737034989e-05
-3.792241333155698e-05
-6.961786948269077e-05
-0.00012152351197278183
-0.0002029151296480667
-0.0003256895007397682
-0.0005045352748230584
-0.0007569501764778315
-0.0011030782536543449
-0.0015653555376069907
-0.002167968945315003
-0.002936149503682814
-0.0038953351093007427
-0.005070248564120119
-0.0064839426248401565
-0.008156864981532551
-0.010105992735482024
-0.012344078840960258
-0.014879043177921762
-0.017713529629111376
-0.020844638914080043
-0.024263836000803594
-0.027957021458470954
-0.03190474865116363
-0.036082563455764084
-0.0404614402392721
-0.04500828698689001
-0.04968649344058554
-0.054456498523375904
-0.059276356798218015
-0.06410228786729295
-0.06888919712365392
-0.07359116084470074
-0.07816187304893249
-0.08255505566514809
-0.08672483727692602
-0.090626108930688
-0.09421486817857916
-0.097448564615741
-0.1002864615975194
-0.10269002948400649
-0.10462338550466495
-0.10605379394875858
-0.10695223758546397
-0.10729406666803551
-0.10705972524540106
-0.1062355455558599
-0.10481459003064743
-0.10279750737379188
-0.10019335546979585
-0.09702033145933843
-0.09330634085086
-0.0890893358168581
-0.08441735991803449
-0.07934825250798824
-0.07394898812938273
-0.06829464838348766
-0.06246703853302187
-0.05655296268733234
-0.05064215995735377
-0.04482488869984352
-0.03918914478468487
-0.03381753335843343
-0.028783894571745086
-0.02414990555376219
-0.01996201171661759
-0.01624912876502154
-0.013021549551062451
-0.0102713574921059
-0.00797440440724976
-0.0060936157818724255
-0.004583129216243098
-0.0033926344555090743
-0.0024713073782353214
-0.0017708987163134033
-0.0012477845440106573
-0.0008640240034876657
-0.0005876318221034719
-0.00039233184706268323
-0.00025702945118910933
-0.00016516754209544503
-0.00010405644556894094
-6.421824480362026e-05
-3.87652880037317e-05
-2.2829704496537738e-05
-1.306187887383684e-05
-7.212360019561337e-06
-3.8027456495887416e-06
-1.8805671258605795e-06
-8.448618511970665e-07
-3.1973411667520476e-07
-1.3805252137681676e-08
-1.806087813625713e-11
-1.4936104419787797e-08
-9.763179886626715e-08
-3.984398837314459e-07
-1.2699366048216727e-06
-3.436582279113593e-06
-8.242874507535333e-06
-1.798609167278996e-05
-3.6327957338043135e-05
-6.876540524996745e-05
-0.0001231264047422584
-0.00021004512451156584
-0.0003433638881642447
-0.0005404089383641296
-0.0008220934113594182
-0.001212813408708466
-0.0017401199457847648
-0.0024341685536242836
-0.0033269669361794827
-0.0044514571099216966
-0.005840480214714179
-0.007525678766339662
-0.009536392376929178
-0.011898599428184862
-0.014633949861251072
-0.017758924431443758
-0.02128414480303114
-0.025213847941182654
-0.02954552836156657
-0.03426974358312798
-0.03937007194395703
-0.04482320785366623
-0.05059917742057492
-0.05666165691379999
-0.06296837732707064
-0.06947160001227198
-0.07611865058187363
-0.08285250073045689
-0.0896123900547448
-0.09633448218722679
-0.10295255149240808
-0.1093986981500902
-0.11560409064705006
-0.1214997355198495
-0.12701727464950846
-0.1320898105146979
-0.13665275956619866
-0.14064473328008958
-0.14400844545234742
-0.14669164286768532
-0.14864805454687458
-0.14983835226632045
-0.15023111184630464
-0.149803760692294
-0.14854349210560971
-0.14644812083523343
-0.14352684720490838
-0.13980088915570998
-0.13530393339711502
-0.1300823499508755
-0.12419511088460845
-0.11771335673149425
-0.11071956562287995
-0.1033063018102522
-0.09557455048110071
-0.08763167919824279
-0.07958909411346965
-0.07155967171904869
-0.06365503856196096
-0.05598274529161002
-0.048643352502058215
-0.04172743767596693
-0.035312567953686425
-0.02946037077555845
-0.024213956118535416
-0.01959605520567259
-0.01560828228352863
-0.012231850607147541
-0.009429871245738082
-0.007151075371869909
-0.005334511213579855
-0.00391457072091609
-0.0028256643856944107
-0.002005994273500625
-0.001400123531099079
-0.0009603176475971812
-0.0006468531603589703
-0.0004276033284315601
-0.00027721558934522316
-0.00017612782999354296
-0.00010957825786549908
-6.668539738086835e-05
-3.9627080479271886e-05
-2.292712808814325e-05
-1.2853094451785505e-05
-6.926246918121442e-06
-3.5402737509361184e-06
-1.676987145461832e-06
-6.877231248994751e-07
-2.9971063181871435e-08
-7.346903131140236e-11
-3.680933834427092e-08
-2.224072335591551e-07
-8.559570861675106e-07
-2.6009748096847988e-06
-6.757176820949731e-06
-1.5635770079191345e-05
-3.303406540649007e-05
-6.478713616676539e-05
-0.00011935552349753751
-0.00020839222884210657
-0.00034722268936673877
-0.000555170325382199
-0.0008556683064869724
-0.001276114521819012
-0.0018474491062111182
-0.0026034591387451454
-0.0035798398995130795
-0.004813063273368606
-0.0063391192277587735
-0.008192204490041278
-0.010403433396875026
-0.012999640102385477
-0.016002330307996644
-0.019426826184777552
-0.02328163204981831
-0.02756803232291963
-0.03227991869568502
-0.03740383125036976
-0.04291918900824851
-0.048798679225884455
-0.055008771548965524
-0.06151032252166802
-0.06825923745653979
-0.07520715977248256
-0.08230216209873051
-0.08948941826933315
-0.09671184042360706
-0.10391067049904301
-0.11102602025457352
-0.11799735846830346
-0.12476394804825622
-0.13126523945301358
-0.13744123004179026
-0.14323280176890416
-0.14858205200641914
-0.15343263419894496
-0.15773012646849113
-0.16142244709004985
-0.16446033579034805
-0.166797918864387
-0.16839337388301429
-0.16920970596216092
-0.16921564184118887
-0.1683866400472271
-0.16670600494021953
-0.1641660793113652
-0.16076947456326962
-0.15653027985923904
-0.15147517314469963
-0.14564433963854265
-0.13909209032031247
-0.13188706807669362
-0.12411193679894525
-0.1158624721501383
-0.1072460124728785
-0.09837928038431483
-0.08938564085571671
-0.08039190733146859
-0.07152483188379734
-0.06290741364103863
-0.05465513890924113
-0.04687224610985876
-0.03964811408230481
-0.03305392109029759
-0.02713980994724115
-0.021932889409445513
-0.017436449573663238
-0.013630716496371506
-0.010475294759298063
-0.007913171517340169
-0.005875855025630842
-0.004288990772889053
-0.003077718269102984
-0.0021711288163765888
-0.0015054232660657986
-0.0010256661241850634
-0.0006862954080845188
-0.0004507103075946513
-0.00029030217546219153
-0.00018324373949428743
-0.00011325455408024189
-6.846323444825025e-05
-4.0415940200449246e-05
-2.324135699352205e-05
-1.296637467415497e-05
-6.970953003442553e-06
-3.562842902059518e-06
-1.616947760195877e-06
-7.017106834378507e-08
-2.359002352055811e-10
-8.502768827902745e-08
-4.79425123702802e-07
-1.7495120540953063e-06
-5.086955602471291e-06
-1.2722113743251672e-05
-2.8462182755253645e-05
-5.8331794354051444e-05
-0.00011126975229279755
-0.00019981497599857448
-0.00034070172832305226
-0.0005552819171284785
-0.0008697017269117771
-0.0013147799159157524
-0.00192556280382072
-0.002740562109120639
-0.0038007119045109553
-0.0051481060851691135
-0.0068245950486912465
-0.008870328357566563
-0.011322329029837163
-0.014213176026724368
-0.017569856548994633
-0.021412831374675187
-0.02575533710662738
-0.030602930949518766
-0.03595326806754764
-0.04179608964069763
-0.04811339180389013
-0.05487974159216502
-0.06206270533795
-0.06962335696902165
-0.07751683754826535
-0.08569294240988952
-0.09409671770730245
-0.10266905355890721
-0.11134726587610806
-0.12006566314688501
-0.128756097820912
-0.13734850449271996
-0.14577142887548183
-0.15395255271334835
-0.1618192204313461
-0.16929897360930274
-0.1763200994206987
-0.1828121991093256
-0.18870678246876485
-0.1939378941903912
-0.19844277786220824
-0.2021625832920916
-0.20504312259602317
-0.2070356799682889
-0.2080978789943694
-0.2081946094562417
-0.2072990124164626
-0.2053935174968651
-0.20247091921721042
-0.1985354696090542
-0.19360395182106044
-0.1877066841864956
-0.18088838694251202
-0.1732088261034125
-0.16474313372114868
-0.15558169499559354
-0.14582949533977813
-0.135604839174992
-0.12503738937736184
-0.11426553007120344
-0.10343311830957315
-0.09268574945977025
-0.08216670264109652
-0.07201274666057815
-0.06234997459140902
-0.05328981086402775
-0.044925322119451445
-0.03732798345801426
-0.030545109563922517
-0.024598233259653244
-0.01948275626562981
-0.015169156452493403
-0.011605882140825656
-0.008723810564852826
-0.006441856567724938
-0.004673079897974609
-0.0033305381483113676
-0.00233220604100242
-0.001604507126207572
-0.0010843062644811197
-0.0007194969451001209
-0.00046851201434931707
-0.0002991590382196556
-0.0001871476334987743
-0.00011457988164998434
-6.856498290404279e-05
-4.002959270536199e-05
-2.2738375634243516e-05
-1.250993443866039e-05
-6.592483399514458e-06
-3.09888747436687e-06
-1.3430137583088566e-07
-6.564448538942115e-10
-1.8519329099307977e-07
-9.816301361582479e-07
-3.411563286548462e-06
-9.520680295098639e-06
-2.29731502794903e-05
-4.977945903237686e-05
-9.91062298141655e-05
-0.00018408967292449411
-0.0003225561395592493
-0.0005375485030569332
-0.0008575674433117387
-0.0013164609035093769
-0.0019529292189313892
-0.0028096522829973106
-0.00393208278855362
-0.005366980918691725
-0.007160787215068913
-0.009357939978360609
-0.011999241602142491
-0.015120366408446183
-0.018750583560329364
-0.02291174562461818
-0.027617569399409896
-0.03287321326833177
-0.03867513644208025
-0.04501121105794886
-0.05186104856561564
-0.059196496886223325
-0.06698226384512837
-0.07517662448229756
-0.08373217411406396
-0.09259659459079972
-0.1017134073371167
-0.11102269291615503
-0.12046176264574054
-0.12996577298985168
-0.13946827796249314
-0.14890171861746
-0.15819785192417532
-0.16728812404819765
-0.1761039953773629
-0.18457722666698095
-0.19264013750859701
-0.2002258500198797
-0.20726853224153718
-0.21370365721007567
-0.21946829501443535
-0.22450145625959936
-0.22874450612335584
-0.2321416684224885
-0.23464063856239004
-0.2361933226292074
-0.23675671683749558
-0.23629393666345372
-0.23477539784535031
-0.23218014160688732
-0.2284972836221519
-0.22372755022386154
-0.21788484627873914
-0.21099777759051835
-0.20311102789700897
-0.19428646869873173
-0.18460386265848
-0.17416101271536275
-0.16307321473729355
-0.1514718965754987
-0.1395023737244052
-0.12732071997863664
-0.11508983294440929
-0.10297485542514358
-0.09113817799960904
-0.07973428186744282
-0.06890468021226305
-0.05877319060125789
-0.04944174145866871
-0.04098690531569289
-0.03345737090611532
-0.026872602290237527
-0.021222949350463805
-0.016471424168804316
-0.012557211187642954
-0.009400742983625487
-0.00690990073659853
-0.004986672040220437
-0.0035334986780836877
-0.002458615180492508
-0.0016798991860371786
-0.0011270589433093052
-0.0007422808888709399
-0.00047967383815133817
-0.0003039385451432286
-0.00018867049917203042
-0.00011460997920457169
-6.803555662927895e-05
-3.939307352785912e-05
-2.217703649234448e-05
-1.2020778216597187e-05
-5.820113461723227e-06
-2.513524994837906e-07
-1.645737075540866e-09
-3.821302414850261e-07
-1.9153461005606296e-06
-6.3631546722753325e-06
-1.708866485615033e-05
-3.9865181097624295e-05
-8.380275673692397e-05
-0.00016230242500009728
-0.00029392391047495067
-0.0005030440524754818
-0.0008201938291665099
-0.001281990471252523
-0.0019306229284386793
-0.0028128969052217284
-0.003978892195435662
-0.005480323398174465
-0.007368720588149278
-0.009693556995047748
-0.012500446594707065
-0.015829518141553284
-0.019714047279231362
-0.02417939914095263
-0.02924230425459825
-0.03491046382692303
-0.04118245881208348
-0.048047921718667834
-0.055487921064031456
-0.06347550518885704
-0.07197635375627644
-0.08094949040089747
-0.09034801736002451
-0.10011984133492734
-0.11020836833512507
-0.12055315315111788
-0.13109049593268565
-0.14175398389648336
-0.15247498040259513
-0.1631830666085838
-0.17380644279757546
-0.1842722974935079
-0.19450715284440084
-0.20443719468831795
-0.21398859541112802
-0.22308783732834406
-0.23166204401467036
-0.23963932687555387
-0.2469491543878285
-0.25352275188460355
-0.25929354054137127
-0.26419762531068325
-0.268174342868744
-0.27116688201985684
-0.27312299019803976
-0.2739957803368943
-0.27374465194675945
-0.2723363381113655
-0.26974608555863183
-0.26595896718709855
-0.2609713147037768
-0.25479224280589
-0.24744521546096238
-0.23896957978641517
-0.22942196521051825
-0.21887741765398921
-0.20743011451194485
-0.19519349179962603
-0.1822996164790855
-0.16889766099239556
-0.1551513874363573
-0.141235624988398
-0.12733181882135328
-0.11362282760855527
-0.10028723138662718
-0.08749346506644276
-0.07539410682260239
-0.06412062995445521
-0.05377888924690097
-0.04444558051912628
-0.03616589858855474
-0.028952618129331836
-0.022786805931774647
-0.01762030368013005
-0.01337997078738263
-0.009973452946500844
-0.007295990474115101
-0.0052375760428804785
-0.0036896875385750275
-0.0025508979592508392
-0.0017308864437009124
-0.0011526794168771936
-0.0007532517474785809
-0.0004828385964784553
-0.00030340974049554605
-0.00018674390143179044
-0.00011244771514642984
-6.613966966345155e-05
-3.789840391766668e-05
-2.0952105203012306e-05
-1.0334295536558677e-05
-4.448584635955454e-07
-3.7950097336096205e-09
-7.49895126318703e-07
-3.5713527248364648e-06
-1.1377486911371518e-05
-2.947165651293888e-05
-6.658968999766975e-05
-0.0001360032588364904
-0.0002565533200346122
-0.0004534659358591305
-0.0007588121936557103
-0.0012115065378006942
-0.001856787835802993
-0.002745186054262303
-0.0039310346785265396
-0.005470636251186624
-0.0074202195512569095
-0.009833839284491976
-0.012761363311757878
-0.016246671642670844
-0.020326160510228945
-0.025027609186026596
-0.030369431754701453
-0.036360304749311054
-0.04299913689626072
-0.05027533037580937
-0.058169273917933306
-0.06665300578580488
-0.07569098778512154
-0.08524093821279949
-0.09525468052028228
-0.10567897404844798
-0.11645630245412246
-0.12752560370311758
-0.13882293238258514
-0.15028205047899112
-0.16183494676006632
-0.1734122876922648
-0.1849438046806366
-0.19635862360778322
-0.2075855434232776
-0.2185532711044707
-0.22919062083513458
-0.23942668584219498
-0.2491909920617335
-0.258413643706259
-0.26702547188108194
-0.2749581986325635
-0.2821446301727932
-0.2885188944659948
-0.2940167398151121
-0.29857591245907905
-0.30213663234873545
-0.30464218702092594
-0.3060396635657441
-0.30628083771080966
-0.3053232365424151
-0.3031313867404537
-0.2996782527174151
-0.29494685797229353
-0.2889320676068002
-0.28164248982886464
-0.2731024293493938
-0.26335379654437713
-0.2524578448323219
-0.24049657800150068
-0.22757364389434853
-0.21381451712741736
-0.19936577855391652
-0.18439332974726547
-0.16907944119387078
-0.15361862238839763
-0.1382124127584288
-0.12306330899545295
-0.10836814676563253
-0.09431132352177185
-0.08105827271033342
-0.06874957973888611
-0.057496081539108304
-0.04737523558537702
-0.03842899636557441
-0.030663396674629376
-0.024049977728832113
-0.01852911632608526
-0.014015138595011488
-0.010402895711307434
-0.00757524992101686
-0.0054107460376219925
-0.0037906888189429932
-0.0026049432582794323
-0.0017560068908384558
-0.001161209831026067
-0.0007531971343712007
-0.00047906687210325327
-0.0002986378215808326
-0.0001823059560295261
-0.00010885202690050294
-6.342091056764995e-05
-3.570098282638655e-05
-1.7893561598448836e-05
-7.673278432207831e-07
-8.1530662825046e-09
-1.4041014549096905e-06
-6.3791407182670315e-06
-1.9540960929834675e-05
-4.8923131139064796e-05
-0.00010723667847148992
-0.0002130870550329128
-0.00039197707842768373
-0.0006769265226511377
-0.001108574758576644
-0.0017346916965598677
-0.002609093177255897
-0.003790027250417121
-0.005338156118818624
-0.007314296938341974
-0.009777099600517085
-0.012780831867373943
-0.016373415996400836
-0.020594822556991056
-0.02547588337659143
-0.031037542726521344
-0.03729052878697969
-0.044235399123638705
-0.05186289556436791
-0.06015453516882553
-0.06908336354578344
-0.07861480260236732
-0.08870753473741136
-0.09931437749384282
-0.11038311508772387
-0.12185726480382048
-0.13367676621050273
-0.14577858912089856
-0.15809726214769357
-0.1705653277209894
-0.1831137318485532
-0.19567215803981156
-0.20816931503665173
-0.22053318761151453
-0.23269125897222306
-0.24457071246348408
-0.2560986194344307
-0.2672021194632348
-0.2778085986736784
-0.28784587170203985
-0.2972423730197972
-0.3059273638251444
-0.31383116161625857
-0.32088540087629436
-0.32702333504429826
-0.3321801920990179
-0.3362935985766929
-0.3393040895373965
-0.3411557246394986
-0.3417968326921963
-0.3411809082782636
-0.33926768353523884
-0.33602439503665266
-0.3314272588728023
-0.3254631553964294
-0.3181315076882592
-0.3094463139649662
-0.29943826388773276
-0.2881568330113412
-0.2756722107829172
-0.26207687958525316
-0.24748663119366537
-0.23204079018569101
-0.21590141965804388
-0.19925132067612084
-0.18229070773905204
-0.16523254695683035
-0.14829667252721254
-0.13170293333995367
-0.11566374269970839
-0.1003764883001968
-0.08601629243358516
-0.07272959290925396
-0.060628955879848685
-0.04978945284914476
-0.040246852408466934
-0.031997796247918965
-0.025002036121197654
-0.019186682904854827
-0.014452247778549164
-0.010680049731395937
-0.007740363240230493
-0.00550054401688934
-0.003832353369809111
-0.0026178268688052996
-0.0017532799917463137
-0.0011513519938621444
-0.0007412815509311653
-0.0004678168565067199
-0.0002892540202449196
-0.00017507220897094677
-0.00010350964611841393
-5.9169050666968195e-05
-3.0040346691677035e-05
-1.2831722022839608e-06
-1.6461417865058664e-08
-2.5153327627788967e-06
-1.0938549759815062e-05
-3.2295843453725735e-05
-7.829240090773933e-05
-0.00016673363429648986
-0.00032274470778150346
-0.0005795907656064954
-0.0009789290471729855
-0.0015703916247208833
-0.0024104821994580567
-0.0035608561742643476
-0.005086125338254608
-0.007051376443059928
-0.009519611918946907
-0.01254931183859428
-0.016192284333594875
-0.020491925000989904
-0.025481953128391396
-0.031185641659461846
-0.03761551462107873
-0.044773453750990524
-0.05265113648477608
-0.06123071956731766
-0.07048568433760889
-0.08038176852691756
-0.09087792242527631
-0.10192724201165923
-0.11347784613353681
-0.12547367770062132
-0.13785521935823267
-0.15056012196219654
-0.163523749498504
-0.17667964722807336
-0.18995994126420523
-0.2032956780116808
-0.21661711137979986
-0.2298539448195159
-0.24293553432723863
-0.2557910578113597
-0.2683496557549719
-0.28054054798457817
-0.29229313157474296
-0.3035370654554253
-0.31420234809830727
-0.3242193956937532
-0.3335191294502875
-0.34203308202606736
-0.34969353462428304
-0.35643369795308355
-0.3621879520726133
-0.3668921621258324
-0.37048408904394414
-0.3729039164370367
-0.3740949168295769
-0.37400428183501766
-0.3725841412485418
-0.36979279461174397
-0.36559617457638116
-0.3599695531824414
-0.35289948869786714
-0.3443859907740343
-0.33444485456864176
-0.3231100801507493
-0.31043625310363543
-0.2965007185958192
-0.28140533911241694
-0.2652775924435262
-0.24827075007786192
-0.23056288622147436
-0.21235451246313178
-0.19386471708442066
-0.17532580903181305
-0.15697661390663542
-0.13905472372307637
-0.12178813891547957
-0.1053868360014519
-0.09003483115351159
-0.07588328581400798
-0.06304512652370853
-0.051591546837879226
-0.04155064261657008
-0.03290831056359597
-0.02561140793226673
-0.01957301667524856
-0.014679472992659906
-0.010798628160790191
-0.007788636922738265
-0.005506476616824804
-0.0038154264629448125
-0.0025908952494883993
-0.0017242501077231668
-0.0011246085164705276
-0.0007188368003621835
-0.0004501899597281285
-0.00027609546440020516
-0.00016550742886980307
-9.594461384740422e-05
-4.9262376578013066e-05
-2.0954011095696606e-06
-3.143336677948265e-08
-4.321209999836027e-06
-1.8039831489648355e-05
-5.1444221139036035e-05
-0.0001209577586486367
-0.00025061680151729795
-0.00047313611904908773
-0.000830365109926094
-0.0013729978372010734
-0.002159499587306259
-0.0032543166814486737
-0.004725525548862797
-0.006642137650500928
-0.009071302022090161
-0.01207563765788674
-0.01571089021996836
-0.020024051653719937
-0.025052018187074244
-0.030820801694468273
-0.037345258789121996
-0.04462926544907794
-0.05266624369879804
-0.06143993970343824
-0.07092535687495975
-0.08108975979450737
-0.09189368144206601
-0.10329188435938642
-0.11523424364131256
-0.12766653453919305
-0.14053111919520214
-0.1537675354366503
-0.1673129958998778
-0.1811028085339948
-0.19507073037410316
-0.209149265989634
-0.22326992075238222
-0.23736341746851403
-0.25135988329790837
-0.2651890124500452
-0.2787802090125445
-0.2920627134808656
-0.30496571611331796
-0.3174184601064604
-0.3293503377355918
-0.34069098300090694
-0.3513703649427179
-0.36131888663751904
-0.370467495979169
-0.3787478157227588
-0.3860923019728217
-0.3924344423862331
-0.39770900787646296
-0.4018523745604107
-0.4048029360305734
-0.4065016296118925
-0.4068926037762442
-0.4059240568435375
-0.40354927876004854
-0.3997279271039154
-0.3944275642512178
-0.3876254733686785
-0.37931075504802303
-0.36948668261793993
-0.3581732616602346
-0.34540989821119905
-0.33125803224741135
-0.3158035420305243
-0.2991586767349764
-0.2814632378351796
-0.26288471404541275
-0.2436170906195559
-0.22387811011522954
-0.20390486217668038
-0.18394772076540752
-0.16426281543190518
-0.1451033966251028
-0.12671060631856715
-0.10930426813947217
-0.09307434795820016
-0.07817370265439103
-0.06471264204784509
-0.052755696390794415
-0.042320828983987
-0.03338117184038647
-0.025869192841364675
-0.019683021769558644
-0.014694472633751147
-0.010758119606842597
-0.007720649644809046
-0.005429669042784285
-0.003741214617225164
-0.0025254146325185776
-0.0016700260760727811
-0.00108188197979665
-0.0006865450563451145
-0.0004266195478198881
-0.0002591544206292253
-0.00015218754863892216
-7.891016426136203e-05
-3.341749450516526e-06
-5.703740551083626e-08
-7.1332903591350825e-06
-2.866015501827712e-05
-7.908937241542622e-05
-0.00018063348380338822
-0.00036459131725076265
-0.0006720696955408956
-0.0011538884851760073
-0.0018695999827778983
-0.0028856784900804064
-0.0042730462283569305
-0.006104178886347556
-0.008450068570930613
-0.011377313730877187
-0.014945562452493654
-0.01920546973083136
-0.02419725458491158
-0.02994987145243318
-0.036480751174492544
-0.04379602511335329
-0.051891122820452794
-0.06075162750477829
-0.07035428076751447
-0.08066804426887458
-0.09165514683608024
-0.10327206732381689
-0.11547042358539289
-0.12819775452670978
-0.14139819465146777
-0.15501304875183822
-0.1689812789374702
-0.18323991778434498
-0.19772442087194061
-0.2123689701703316
-0.22710673732496967
-0.24187011339359435
-0.2565909093801791
-0.2712005301990842
-0.2856301235809252
-0.2998107049013587
-0.3136732589156159
-0.3271488198211774
-0.3401685318408914
-0.35266369351406884
-0.36456579001237527
-0.37580651899140827
-0.38631781670535636
-0.39603189233938524
-0.4048812797726329
-0.4127989173257865