# vtk DataFile Version 4.1 
COMMENT
ASCII
DATASET STRUCTURED_POINTS 
DIMENSIONS 100 100 1 
ORIGIN 0 0 0
SPACING 0.12693303650867893 0.12693303650867893 0 
POINT_DATA 10000
SCALARS U double 1
LOOKUP_TABLE default
0.0
0.0
0.0
0.0
0.0
0.0
0.0
0.0
0.0
0.0
0.0
0.0
0.0
0.0
0.0
0.0
0.0
0.0
0.0
0.0
0.0
0.0
0.0
0.0
0.0
0.0
0.0
0.0
0.0
0.0
0.0
0.0
0.0
0.0
0.0
0.0
0.0
0.0
0.0
0.0
0.0
0.0
0.0
0.0
0.0
0.0
0.0
0.0
0.0
0.0
0.0
0.0
0.0
0.0
0.0
0.0
0.0
0.0
0.0
0.0
0.0
0.0
0.0
0.0
0.0
0.0
0.0
0.0
0.0
0.0
0.0
0.0
0.0
0.0
0.0
0.0
0.0
0.0
0.0
0.0
0.0
0.0
0.0
0.0
0.0
0.0
0.0
0.0
0.0
0.0
0.0
0.0
0.0
0.0
0.0
0.0
0.0
0.0
0.0
0.0
1.7734358213218618e-12
-8.698443015461783e-10
-9.823335199026596e-09
-5.661436959101506e-08
-2.340524181047674e-07
-7.833853461139821e-07
-2.2537124582739857e-06
-5.771542683884545e-06
-1.3459743142657477e-05
-2.9041938542559417e-05
-5.865715426688856e-05
-0.00011188966320211558
-0.00020299176569498717
-0.00035224543143002305
-0.0005873764833296524
-0.0009449070517182936
-0.0014713129126637014
-0.0022238455803959903
-0.003270886560353292
-0.004691722962672481
-0.006575667798855727
-0.009020491249806653
-0.012130176519860134
-0.016012060772159605
-0.02077346359580659
-0.026517938865182323
-0.03334130830898664
-0.041327645559268204
-0.05054537815398425
-0.06104366327804863
-0.07284917310433986
-0.08596340004885583
-0.1003605638127464
-0.11598617330886506
-0.1327562696371226
-0.15055735283554658
-0.16924697626659674
-0.18865497870029393
-0.2085853154055377
-0.2288184454000965
-0.24911423164081112
-0.2692153133214756
-0.288850913401362
-0.307741048758528
-0.3256011136938796
-0.3421468087070664
-0.3570993844389227
-0.3701911645129089
-0.3811713000302813
-0.3898116923078778
-0.39591299910195293
-0.39931061348710556
-0.3998804746767635
-0.3975445377418807
-0.39227569611255736
-0.38410191884381195
-0.37310933590691014
-0.35944398143447126
-0.34331188973240245
-0.3249772363411126
-0.3047582336321473
-0.28302053835263913
-0.260168021860546
-0.23663090828706967
-0.2128515123478337
-0.18926810386779552
-0.16629776362245352
-0.14431941922003025
-0.12365848017749463
-0.10457454066155235
-0.08725342108930946
-0.07180436417025797
-0.058262549461072115
-0.04659637523535067
-0.03671834484036688
-0.028498034055990076
-0.021775579262928484
-0.01637438423698168
-0.012112178630007976
-0.008810019030484522
-0.00629917622576109
-0.004426045058903646
-0.0030552706305376786
-0.0020712786424800693
-0.0013783992973854244
-0.0008998156084798844
-0.0005756339297940826
-0.00036042632779834837
-0.00022059520908706526
-0.0001318512297455691
-7.699554668685196e-05
-4.409084218459251e-05
-2.5021592615705294e-05
-1.439574136578864e-05
-8.723479071466922e-06
-5.811011510601792e-06
-4.313278012085837e-06
-3.385429371011934e-06
-2.3360062662320597e-06
-1.0191279143022777e-07
3.5892307471416363e-12
-2.988486667008062e-09
-2.7120952698398514e-08
-1.3750787288890687e-07
-5.17093851967079e-07
-1.6017283173065615e-06
-4.309783454211231e-06
-1.0396605516343589e-05
-2.2957178438043933e-05
-4.7085562970012175e-05
-9.067764711293472e-05
-0.00016533703215768542
-0.000287316514903502
-0.0004784044084998933
-0.0007666504687917516
-0.0011868238986371927
-0.0017805073493213739
-0.0025957553800286613
-0.0036862807394885243
-0.0051101727850688325
-0.00692819422632612
-0.009201740080487521
-0.011990571967263011
-0.01535045872025954
-0.019330859461847292
-0.023972778122591125
-0.029306900623279113
-0.03535210030560332
-0.042114366942255316
-0.04958618307994598
-0.057746341540941826
-0.06656017199915487
-0.07598012427658292
-0.08594664221987651
-0.09638925485078491
-0.10722781049619219
-0.11837378393784824
-0.12973159517907396
-0.1411998900149523
-0.1526727460547421
-0.16404078213863663
-0.17519216333835194
-0.18601350723266408
-0.19639070936749772
-0.20620971633519755
-0.21535728341079483
-0.22372175987266027
-0.23119394872242877
-0.2376680882096175
-0.24304300008444715
-0.2472234436601058
-0.2501217055691207
-0.25165944286739655
-0.25176978258264476
-0.2503996649591797
-0.24751240157752263
-0.24309040366912169
-0.2371380192092441
-0.22968439618664038
-0.2207862574277906
-0.21053042138334035
-0.19903582687956903
-0.18645471890382104
-0.17297254226184441
-0.1588060050041651
-0.14419876645272028
-0.12941433422755386
-0.11472606277537079
-0.1004046287153286
-0.08670394370899964
-0.07384701202151006
-0.06201356781462487
-0.05133127976880348
-0.04187182495100942
-0.03365228897370596
-0.026641361624692876
-0.020768952319514783
-0.015937395953974025
-0.012032466115689158
-0.008932885534073546
-0.006517704557876703
-0.0046715457791772245
-0.003288096306467521
-0.0022723185632298327
-0.0015417297071513149
-0.0010269174392201275
-0.0006713426724569358
-0.00043047564913433476
-0.00027038964353781424
-0.00016602363908011127
-9.936175186349177e-05
-5.774378489806279e-05
-3.2439838865381515e-05
-1.753186836389384e-05
-9.078498736944406e-06
-4.507870551326724e-06
-2.179829675741499e-06
-1.0681188239783497e-06
-5.190551707775259e-07
-2.4958677717468867e-08
3.732739375653896e-12
-9.582695439458678e-09
-7.64537822817739e-08
-3.5823141474742536e-07
-1.272171007799685e-06
-3.767331659438269e-06
-9.769400095718631e-06
-2.284511310684668e-05
-4.9118998937667603e-05
-9.844947244656376e-05
-0.0001858362380546499
-0.00033299089730318165
-0.0005699636369253053
-0.0009366873328587598
-0.0014842819481975225
-0.0022759604116842727
-0.0033873933499357104
-0.004906422534969839
-0.006932057825084935
-0.009572744315089738
-0.012943939377155201
-0.01716508761203195
-0.022356120876572155
-0.028633637502601603
-0.03610692829744574
-0.04487401726317226
-0.0550178738493057
-0.0666029335142614
-0.07967203740874874
-0.09424387313907956
-0.11031096956132166
-0.12783827163771777
-0.14676229818333852
-0.1669908668451224
-0.18840335731382685
-0.2108514755182773
-0.23416047797070347
-0.25813081585006464
-0.2825401620048286
-0.30714578993604286
-0.3316872810824202
-0.3558895444914476
-0.37946614038259097
-0.402122905386774
-0.423561881603291
-0.443485553284154
-0.46160139316307597
-0.47762671440490245
-0.4912938130722879
-0.5023553691468909
-0.5105900509114647
-0.5158082376495362
-0.5178577395490429
-0.5166293528645233
-0.5120620458032432
-0.5041475312174098
-0.4929339530179468
-0.4785284027314018
-0.46109799904298876
-0.4408693116817699
-0.41812599009223744
-0.39320455565938556
-0.3664884121049153
-0.3384001943197457
-0.3093925879584267
-0.2799377062338373
-0.25051503448664375
-0.22159791072883175
-0.19363858524881908
-0.1670521632159133
-0.14220018863969316
-0.11937518708244989
-0.09878796302340917
-0.08055961555508889
-0.06471991123744805
-0.05121280060667412
-0.03990865043115723
-0.030621521219186376
-0.023128933785973034
-0.017191319806697487
-0.012568793224799733
-0.009033818014047498
-0.006379431108918184
-0.004423554491832745
-0.0030103870449448376
-0.0020098971541413807
-0.0013161942719756433
-0.0008452483594799404
-0.0005322041230068712
-0.00032845090387722967
-0.0001986174272787161
-0.00011768728041381889
-6.84199803035874e-05
-3.9202409867035475e-05
-2.2370362311282448e-05
-1.296343992723767e-05
-7.828332773979263e-06
-4.9604325642305e-06
-2.9324024613934366e-06
-1.2780200408136827e-07
-1.1476420685958826e-11
-2.7713171241890342e-08
-1.981064817744754e-07
-8.612306113611336e-07
-2.8846930217961204e-06
-8.134878359179458e-06
-2.0215399962759972e-05
-4.550303107898358e-05
-9.448693729829585e-05
-0.0001833696574254171
-0.0003358345352270201
-0.0005848331994137197
-0.0009742078166614389
-0.0015599443411266692
-0.0024108598221681786
-0.0036085598058142195
-0.005246557492203595
-0.007428517570385474
-0.01026566533845915
-0.01387347606936493
-0.018367821839617656
-0.02386079664940053
-0.03045646198811811
-0.03824675346426061
-0.047307766885626316
-0.05769660348276477
-0.06944890428833149
-0.08257714887652508
-0.09706973923493613
-0.11289084008968553
-0.12998090591110997
-0.14825779413187454
-0.16761834458271843
-0.1879402964869422
-0.20908441543555725
-0.23089671194894956
-0.2532106486229658
-0.2758492525376145
-0.2986270718020039
-0.3213519383045609
-0.34382652173011535
-0.3658496818100897
-0.38721764598872865
-0.4077250578409164
-0.42716595743369434
-0.44533476820523027
-0.46202737561943563
-0.47704239047885416
-0.49018269374590423
-0.5012573591196514
-0.510084043153279
-0.5164919187021141
-0.5203252039846775
-0.5214473044711325
-0.5197455365325069
-0.51513633979477
-0.5075708111460525
-0.49704031238774743
-0.4835818248106815
-0.46728266070409974
-0.4482841091591332
-0.42678360449410935
-0.40303506504801706
-0.37734714900634303
-0.3500792876821511
-0.3216354504905042
-0.2924556395345757
-0.26300510034369606
-0.23376120655479551
-0.2051980114029187
-0.17776865659668348
-0.1518862544657717
-0.12790448463239276
-0.10609981810050158
-0.0866577419972428
-0.06966533396312322
-0.05511186452255904
-0.0428978459683289
-0.03285139861902969
-0.02474942595644779
-0.018340314623255236
-0.01336493541534349
-0.009573546887081364
-0.006737459372498917
-0.004655560074721121
-0.003156666616766004
-0.0020990163515361023
-0.0013680881951819417
-0.0008736071323639683
-0.0005462216415589998
-0.0003341051019915803
-0.00019963347386177702
-0.00011627649251364976
-6.583676625243085e-05
-3.613918069511347e-05
-1.921117410783807e-05
-9.925628123991109e-06
-5.0221023053625385e-06
-2.3628334832919817e-06
-1.0517557861509183e-07
-8.9261763416127e-11
-7.381715416723257e-08
-4.817456966775226e-07
-1.96237327103045e-06
-6.2418582461957254e-06
-1.6854329845050902e-05
-4.033376710506511e-05
-8.779993172100213e-05
-0.00017690300503340282
-0.00033402367104902084
-0.0005965591138025319
-0.0010150733911494295
-0.0016550636851344852
-0.0025980985680642585
-0.0039421216656606315
-0.005800779332460187
-0.008301715066348208
-0.011583864677022028
-0.01579387261031634
-0.021081820886376994
-0.027596510514894475
-0.03548055751645957
-0.04486556212404373
-0.05586758386168401
-0.06858311267477826
-0.08308567383419828
-0.09942314865194889
-0.11761583997387917
-0.1376552654123484
-0.15950362519042977
-0.18309386654933357
-0.20833025282578105
-0.23508934141775517
-0.26322127915573806
-0.29255133400899225
-0.3228815964931421
-0.3539928007084977
-0.38564623204841136
-0.41758570506514836
-0.4495396099262298
-0.48122303881915074
-0.5123400143046329
-0.5425858498943903
-0.571649679057435
-0.5992171924905346
-0.6249736248499983
-0.6486070311878773
-0.6698118899150063
-0.6882930629455851
-0.7037701343402594
-0.7159821356853183
-0.7246926489069446
-0.7296952543713321
-0.7308192630223955
-0.7279356350316386
-0.7209629433056003
-0.7098731882622263
-0.6946972121000642
-0.6755294004866093
-0.6525313050644439
-0.6259337836353241
-0.5960372519977649
-0.563209687917735
-0.5278821332090307
-0.4905416000612976
-0.45172147827604725
-0.41198971738312024
-0.37193517069017384
-0.33215250175080774
-0.29322597471044143
-0.2557123445738244
-0.22012304573883432
-0.18690606352226405
-0.156428312757828
-0.12895995943291608
-0.1046626829999398
-0.08358408626156401
-0.06566006358184003
-0.050725873999588764
-0.03853513971492983
-0.028784436159607626
-0.021140059533396614
-0.015263311834558757
-0.010831293854216995
-0.007551483406636948
-0.005169840279487493
-0.003473365772609589
-0.002288680016841251
-0.001478244611748964
-0.0009355321332971653
-0.0005799813527483446
-0.00035217968043295053
-0.00020947015870816763
-0.0001220731810431307
-6.977732583043423e-05
-3.922894915293142e-05
-2.1807606926080587e-05
-1.200493346021658e-05
-6.074588741416978e-06
-2.6434068566127644e-07
-3.652085509830327e-10
-1.8297020660259929e-07
-1.1038328143747006e-06
-4.240319250720665e-06
-1.2858127846253958e-05
-3.332944330855811e-05
-7.693866637627306e-05
-0.00016214466154864702
-0.0003171803382267981
-0.000582781804900906
-0.0010147680193277257
-0.001686153172677034
-0.0026884777186574507
-0.0041320920105010735
-0.006145213034680216
-0.008871687393856366
-0.012467516401071218
-0.017096315183305153
-0.022923972572999097
-0.030112842116544632
-0.03881582189663122
-0.04917067248227746
-0.061294883022439905
-0.0752813331292672
-0.09119492203365433
-0.10907025579918918
-0.12891040625776792
-0.15068668801126575
-0.17433934637417245
-0.19977901141683263
-0.22688875136840972
-0.2555265512095825
-0.28552804706691826
-0.31670936129502486
-0.348869904103611
-0.3817950326652894
-0.41525848562359635
-0.4490245380816623
-0.4828498482534472
-0.5164849912180713
-0.549675697233024
-0.5821638317277474
-0.6136881715083365
-0.6439850470547749
-0.6727889342959391
-0.6998330910443431
-0.724850343347585
-0.7475741351208313
-0.767739960014395
-0.7850872966281206
-0.7993621655875492
-0.8103204179048592
-0.8177318463362886
-0.821385182710962
-0.8210940019434024
-0.8167034953659378
-0.8080980005240956
-0.7952090814542296
-0.7780238448942495
-0.7565930597751781
-0.7310385307892212
-0.701559079124029
-0.6684344277151155
-0.6320263004697929
-0.5927761467775877
-0.5511991023691445
-0.5078740794723573
-0.4634301987905875
-0.4185300666221636
-0.3738505954123167
-0.33006212955501246
-0.2878065949365478
-0.2476753314827014
-0.2101873186656893
-0.17576875853132706
-0.14473542604541004
-0.11727967141892442
-0.09346418766392639
-0.07322436010817934
-0.05638006056081235
-0.04265626220396002
-0.03171021552303815
-0.0231616529973489
-0.016622012069784437
-0.011719143184747947
-0.008115222560259278
-0.005517181104344049
-0.003680391100691893
-0.002407258571071716
-0.0015426407013724986
-0.0009677706347205552
-0.0005938783607367769
-0.00035618975293543067
-0.000208611290576904
-0.00011919619045166091
-6.639348363128256e-05
-3.603790230364152e-05
-1.8981153725023386e-05
-9.066483377212973e-06
-3.957042110383301e-07
-1.1802970270881234e-09
-4.254054131777405e-07
-2.3950059430886606e-06
-8.723367143604312e-06
-2.531001523471449e-05
-6.314999154129802e-05
-0.00014092612244739043
-0.0002880582845209737
-0.0005479695526163133
-0.000981234033731269
-0.0016682170824270314
-0.0027108192045786628
-0.004232993452925262
-0.006379814695295667
-0.009315021121535027
-0.013217102030983547
-0.018274148998540928
-0.0246778010685241
-0.03261668602518413
-0.04226978387882998
-0.05380011754684616
-0.06734911713224853
-0.08303191969632566
-0.10093376885126203
-0.12110758008929627
-0.1435726486174098
-0.16831440370766632
-0.19528506111854016
-0.22440499394767596
-0.2555646309145363
-0.2886266964657479
-0.32342862526654326
-0.35978501036072047
-0.3974899755799697
-0.43631939528698
-0.4760329156411165
-0.5163757594875904
-0.5570803206523911
-0.597867572474813
-0.6384483299169886
-0.678524414986656
-0.717789782131021
-0.7559316644314387
-0.7926318035770362
-0.8275678273806976
-0.8604148385697984
-0.8908472781313916
-0.9185411258262078
-0.9431764995926575
-0.9644407141560092
-0.9820318566292894
-0.995662932246063
-1.0050666251668314
-1.0100007056437275
-1.0102540933499566
-1.0056535546584513
-0.9960709662253769
-0.9814310158027864
-0.9617191321180684
-0.936989339250252
-0.9073716209930687
-0.8730782662439467
-0.8344085633865439
-0.7917511432107265
-0.745583264749187
-0.6964664245101139
-0.6450378642645332
-0.591997850389374
-0.5380929618730793
-0.4840959876983556
-0.43078331817066096
-0.37891085885337905
-0.3291894939054069
-0.28226104299928195
-0.23867561102463755
-0.19887133582348146
-0.16315782671816997
-0.13170494733804858
-0.10453879305937919
-0.08154647207439514
-0.06249045249400686
-0.047031850982113585
-0.0347604385584657
-0.025227815601588287
-0.017979615328640924
-0.01258295359698863
-0.00864653860495569
-0.005832489012910633
-0.0038604755203705096
-0.0025058879749243436
-0.0015941613973640256
-0.000993244493465863
-0.0006056979299258059
-0.000361328748406636
-0.0002107865743072408
-0.0001202360892237482
-6.7050814805255e-05
-3.6343837390675045e-05
-1.7784866534168904e-05
-7.706073346930468e-07
-3.308467283958416e-09
-9.333137202299221e-07
-4.939625376118107e-06
-1.713410759664812e-05
-4.770977594018653e-05
-0.00011483912175706574
-0.0002481803115377309
-0.0004927176269307042
-0.0009125358862462743
-0.0015940502747379924
-0.0026482046833323095
-0.004211219088361738
-0.00644360040323754
-0.009527309985955836
-0.013661175925544526
-0.019054819806335038
-0.025921510983344057
-0.03447045011241561
-0.04489901147952876
-0.05738544385738671
-0.07208245294561334
-0.08911198019050612
-0.1085613696153425
-0.13048099168318747
-0.1548832835464794
-0.18174307666732742
-0.210999019908601
-0.2425558693039025
-0.2762874024953033
-0.3120397221405558
-0.3496347334346685
-0.38887361119770586
-0.42954010719284774
-0.471403584746808
-0.5142217026270234
-0.5577427017349152
-0.6017072755999605
-0.6458500286778345
-0.6899005453247938
-0.7335841076033216
-0.7766221124902537
-0.8187322493661416
-0.8596285075756532
-0.8990210919725825
-0.9366163321669304
-0.97211667897389
-1.0052208894282515
-1.0356245095503762
-1.0630207714446784
-1.0871020275780576
-1.1075618491535582
-1.1240979158668354
-1.13641581904567
-1.144233886786458
-1.1472891153567573
-1.1453442526929956
-1.1381960241386397
-1.1256844148940361
-1.1077028262373425
-1.0842088034951323
-1.0552348959621238
-1.0208990597334031
-0.9814138667794368
-0.937093657762915
-0.8883586996294636
-0.8357354146062154
-0.779851866697298
-0.7214279455604984
-0.6612600720861315
-0.600200726708886
-0.5391335965985437
-0.4789455571709486
-0.42049696367460854
-0.3645917957227183
-0.3119491114106498
-0.263177133932414
-0.2187512347049991
-0.1789971561097726
-0.14408097489210397
-0.11400735611662545
-0.08862734380393034
-0.06765611012170156
-0.05069977413153601
-0.037288884397370554
-0.026914887210261067
-0.019065315152565824
-0.013253767171825002
-0.009041933357456866
-0.00605258042898712
-0.003974060537297887
-0.002558106987499416
-0.0016132219499804823
-0.0009958799203630489
-0.0006012811656949451
-0.0003547581725923275
-0.00020437221753664064
-0.00011482367563470893
-6.246669171157507e-05
-3.0532431164763396e-05
-1.3201396500917886e-06
-8.362234916315005e-09
-1.941515712693381e-06
-9.716546745878546e-06
-3.221593872786704e-05
-8.631627938729266e-05
-0.00020083935310340084
-0.0004210069721979537
-0.0008129296573489584
-0.0014675513690272717
-0.002503448572506584
-0.004067956443552853
-0.006336257467418162
-0.009508290292290708
-0.013803581648248249
-0.019454332141670704
-0.026697264782319898
-0.0357648518002349
-0.04687656302662747
-0.060230733133188864
-0.07599754051135543
-0.09431344839099874
-0.11527730124284373
-0.13894811674753152
-0.16534448128046303
-0.1944453549241764
-0.22619202477401035
-0.2604909121812392
-0.2972169364297081
-0.3362171578504886
-0.3773144603718787
-0.42031107999852596
-0.46499183564392055
-0.5111269673421336
-0.5584745308037622
-0.6067823345736059
-0.6557894358545322
-0.7052272334247823
-0.7548202116452022
-0.8042863993438495
-0.8533376125598032
-0.9016795519284259
-0.9490118250256006
-0.9950279622604626
-1.039415492770615
-1.0818561449388884
-1.1220262351871266
-1.1595973090489653
-1.19423710048249
-1.2256108790938296
-1.2533832603257795
-1.2772205603391331
-1.296793784474385
-1.311782344462271
-1.3218786028814251
-1.3267933408483046
-1.3262622328176774
-1.3200533861587715
-1.3079759578752668
-1.2898897915753977
-1.2657159206599327
-1.2354476569596864
-1.1991618297537703
-1.1570295658651855
-1.109325822488068
-1.0564367246266277
-0.9988636516054472
-0.9372230014527
-0.8722406769749625
-0.8047406100544575
-0.7356270720300703
-0.6658610706891156
-0.5964317302593927
-0.5283240844352666
-0.462485082197329
-0.3997897537016081
-0.3410094238932562
-0.2867836825627888
-0.23759764043951948
-0.19376590168205984
-0.15542464048826846
-0.12253304150119787
-0.09488494782157812
-0.07213071033843962
-0.05380797526016652
-0.0393787331890259
-0.02826879169234541
-0.019905332229500944
-0.013748597272259555
-0.009314956920195811
-0.006190283892107561
-0.004034243246544442
-0.002577352615054195
-0.0016132627976872677
-0.000988662553574609
-0.0005927224212067087
-0.0003473194882528947
-0.0001986225463009422
-0.00010994878848984378
-5.447802500441749e-05
-2.3449914102551314e-06
-1.945857495337423e-08
-3.844673496592056e-06
-1.8281421123004463e-05
-5.811922662222745e-05
-0.00015017903515897598
-0.000338385699946207
-0.0006890434387288657
-0.0012956162539717383
-0.002282273566782891
-0.003805536285547203
-0.006053549693861726
-0.009242782324685337
-0.013612255298117458
-0.019415692669695853
-0.026912206525209613
-0.036356262757877726
-0.04798770504644703
-0.06202255311731089
-0.07864515744120952
-0.09800211372551156
-0.12019814586004092
-0.14529398088129303
-0.17330608309913764
-0.20420799812730153
-0.23793298506901125
-0.27437758430051806
-0.3134057726772119
-0.35485338876895894
-0.3985325585450588
-0.44423590812981834
-0.49174040773429256
-0.5408107444500833
-0.5912021680103752
-0.6426627913300795
-0.6949353564256865
-0.7477584969252632
-0.8008675421155019
-0.8539949158907525
-0.9068701886365462
-0.9592198424209268
-1.0107668110739298
-1.0612298577402122
-1.1103228539687582
-1.1577540268102104
-1.2032252439963582
-1.2464314122041757
-1.2870600696711498
-1.3247912619443343
-1.3592977981222303
-1.3902459942610155
-1.4172970201435535
-1.4401089745456448
-1.458339821271993
-1.471651321830547
-1.4797140982525554
-1.4822139480584355
-1.4788595087328358
-1.4693913266537344
-1.4535923202381063
-1.4312995344445485
-1.4024169603265781
-1.3669290383375148
-1.324914281231226
-1.2765582517591982
-1.222164930361541
-1.1621653367901696
-1.0971221645544362
-1.0277291917623106
-0.9548043883003946
-0.8792759755201417
-0.8021612101430383
-0.7245383171273289
-0.6475127006698033
-0.572179201477808
-0.499582625452463
-0.43067896846964304
-0.3662997017628438
-0.3071212370410145
-0.2536413755044122
-0.20616425204184327
-0.16479502077674132
-0.12944519125198883
-0.0998489588732849
-0.07558996599834254
-0.056136717905431226
-0.04088359099544525
-0.02919337616153537
-0.020436959172455874
-0.01402624295297799
-0.009437684398005622
-0.006225518809751514
-0.0040254214577478175
-0.0025506008066692753
-0.0015829109126550762
-0.00096152015795195
-0.0005711589423960851
-0.00033120053733046205
-0.0001857946123949403
-9.29799455729584e-05
-3.988027801634174e-06
-4.222809654927635e-08
-7.2716376514524124e-06
-3.298290953003056e-05
-0.00010081420145169215
-0.0002517415887767206
-0.0005501756346183522
-0.0010897070251063236
-0.0019975801975092833
-0.0034370602102541223
-0.005607076158568428
-0.008738854088390884
-0.013089630651587747
-0.018933897636286844
-0.026552908937584833
-0.03622334787547455
-0.048206091059594794
-0.06273592530194336
-0.08001290355264384
-0.10019580080073648
-0.12339788893529091
-0.1496850232835677
-0.1790758465995421
-0.21154378198390583
-0.24702040814964418
-0.285399784408972
-0.32654330938894816
-0.37028474489365093
-0.4164351023258714
-0.4647871627696564
-0.5151194745693279
-0.5671997379676421
-0.6207875415307017
-0.6756364582528246
-0.7314955405642635
-0.7881102741856199
-0.8452230626950549
-0.9025733198104489
-0.9598972466828486
-1.0169273686628533
-1.0733919014422604
-1.1290140112739613
-1.1835110289305553
-1.2365936727417899
-1.2879653328516754
-1.3373214670541542
-1.3843491584478211
-1.42872688692824
-1.4701245704466068
-1.5082039382311616
-1.542619306965164
-1.573018842278163
-1.5990464016094528
-1.620344069887671
-1.6365555152436562
-1.6473303059759157
-1.6523293389822742
-1.6512315293950812
-1.6437418955168168
-1.6296011356454214
-1.608596726840906
-1.5805754734533388
-1.5454572905620891
-1.5032498234179825
-1.4540632836090637
-1.3981246394437516
-1.335790055834364
-1.2675542730337188
-1.1940554894014002
-1.1160743219636748
-1.0345256071739708
-0.9504422027958634
-0.8649505566792772
-0.7792385697971139
-0.6945171014883522
-0.6119772132792558
-0.5327457919679817
-0.4578424418130147
-0.38814047301573473
-0.3243345027444142
-0.2669167374576575
-0.21616352125285265
-0.17213324437736438
-0.13467614902369915
-0.10345583638385523
-0.07798129796245125
-0.05764712143244394
-0.04177837538010029
-0.02967588465971472
-0.02065747425641753
-0.01409142557529908
-0.009419748301100003
-0.006170592364351884
-0.003960773384045312
-0.0024905819596762278
-0.001533590019705537
-0.0009240574512005648
-0.0005438802520519201
-0.0003096581498882919
-0.00015677829833919986
-6.6963919175046e-06
-8.622428753175971e-08
-1.317353799091337e-05
-5.719073971822993e-05
-0.00016846245970414977
-0.00040725030823138356
-0.0008645383815556768
-0.0016676337445099712
-0.002983495116521078
-0.005018984285383507
-0.00801762516566653
-0.012252919515241392
-0.018018717298459327
-0.02561749621501581
-0.03534761806365737
-0.047490681137512564
-0.06229999023818115
-0.07999095440442079
-0.10073394429838407
-0.12464984488820807
-0.15180826601710248
-0.18222815290636465
-0.21588038604637322
-0.2526918780299083
-0.2925506565980624
-0.3353114552248792
-0.38080139902418486
-0.4288254589113271
-0.4791714373016053
-0.5316143339654684
-0.5859200143383302
-0.6418481612228797
-0.6991545336952503
-0.7575925852947517
-0.8169145095489434
-0.8768717873852423
-0.9372153108663654
-0.9976951535373083
-1.0580600516063134
-1.1180566538032268
-1.1774285921667023
-1.235915421874286
-1.2932514758717562
-1.3491646795594459
-1.4033753720789046
-1.455595183661497
-1.5055260228869443
-1.552859233421817
-1.5972749867951097
-1.6384419860190529
-1.6760175644343167
-1.7096482751167081
-1.7389710785241201
-1.763615249583441
-1.7832051395269812
-1.7973639412726048
-1.8057186178869333
-1.8079061583826124
-1.8035813190876866
-1.7924259859361273
-1.7741602458616508
-1.7485551759979099
-1.7154472400657532
-1.674754016867526
-1.6264907754463065
-1.570787161682686
-1.5079029883671207
-1.438241853764034
-1.3623610939053923
-1.2809764536590293
-1.1949598980381717
-1.1053292289353849
-1.0132286524487064
-0.9199001487707467
-0.826646370073563
-0.7347867205702935
-0.6456091114629884
-0.5603204866729213
-0.47999948106085427
-0.4055544759449279
-0.3376899146695132
-0.27688314447052914
-0.22337336807488362
-0.1771635712966508
-0.138035518446816
-0.10557701227766605
-0.0792195703029707
-0.058283553191026384
-0.04202680235777345
-0.02969228723756028
-0.020550372039297524
-0.013932169274879717
-0.009251910378992487
-0.006017997605234651
-0.0038339943702149644
-0.002391914959625193
-0.0014605915830597528
-0.0008715187462404097
-0.0005029301712529597
-0.00025728353684034716
-1.0943568147786804e-05
-1.667249563969928e-07
-2.291658038322679e-05
-9.549749824203107e-05
-0.0002716533267068236
-0.000636798416163725
-0.0013148659514331071
-0.0024728828723290562
-0.0043221371048816765
-0.007115338697452634
-0.01113973950181863
-0.01670673613831024
-0.024138935063859033
-0.03375593681333419
-0.045860172006995735
-0.06072400858398517
-0.078579092554267
-0.0996085440101773
-0.12394226849272459
-0.1516553137553774
-0.1827689399770714
-0.21725389583296337
-0.2550353053914763
-0.2959985610453569
-0.339995667629656
-0.3868515717830877
-0.43637011864988007
-0.48833938872611127
-0.542536269077996
-0.5987301980186307
-0.656686087457745
-0.7161664725500917
-0.7769329661109273
-0.8387471088566241
-0.9013707095624147
-0.9645657652307738
-1.0280940433434704
-1.0917163985726155
-1.1551918866114774
-1.218276729103099
-1.280723176547842
-1.3422783107547396
-1.4026828248305077
-1.4616698167200075
-1.5189636317409476
-1.574278790248638
-1.6273190384641913
-1.677776563652507
-1.725331419419147
-1.7696512131979907
-1.8103911164054707
-1.8471942686615002
-1.8796926612928457
-1.9075086022322232
-1.9302568842301178
-1.9475478002179611
-1.9589911720033575
-1.964201578304841
-1.9628049809668955
-1.9544469478102902
-1.9388026490096788
-1.9155887518333723
-1.8845772462329031
-1.845611092372518
-1.7986213852070145
-1.7436454811495055
-1.680845237396803
-1.6105241974509275
-1.5331422528398584
-1.449326071194018
-1.3598734655545643
-1.265749952548901
-1.1680760607741814
-1.0681045306971595
-0.9671873741774997
-0.8667337601163129
-0.7681607339486305
-0.6728397008979241
-0.5820422483810627
-0.49688914174036325
-0.41830617027817507
-0.34699000396956065
-0.2833864587945999
-0.227682678710889
-0.17981379898264138
-0.13948367207803486
-0.10619819543711932
-0.07930869254350302
-0.058061764767433
-0.04165124862478887
-0.029267620199898804
-0.02014056338015831
-0.013571479416080608
-0.008954279570530556
-0.005784529399756878
-0.0036585080994172175
-0.0022646572100799038
-0.0013698525692950228
-0.0008009452447820974
-0.0004137670331568463
-1.7521511849482223e-05
-3.0680686238728065e-07
-3.8363520246660325e-05
-0.00015383911464054797
-0.0004233873108561861
-0.0009638133818502641
-0.0019380528538040598
-0.0035576297565534055
-0.00608058410705823
-0.009804686783456487
-0.015056454556284862
-0.02217705765420189
-0.03150658041261449
-0.043368211524821454
-0.05805381797511377
-0.07581205095908823
-0.09683972006884654
-0.12127673346044325
-0.14920450385030445
-0.1806474088988262
-0.21557669192092765
-0.2539160957362095
-0.2955485239608046
-0.3403230962143053
-0.38806207973626833
-0.43856731479949995
-0.49162588492833187
-0.5470149012688346
-0.6045053656041582
-0.6638651457481985
-0.7248611415325348
-0.7872607429205503
-0.8508326887245492
-0.9153474299657262
-0.9805770906550374
-1.0462951044203699
-1.1122755907425779
-1.1782925214443922
-1.244118717555569
-1.3095247091814766
-1.3742774865088079
-1.4381391682856024
-1.5008656145579835
-1.5622050126311455
-1.6218964686726443
-1.6796686416942763
-1.735238461548017
-1.7883099778960294
-1.8385733928580084
-1.8857043363503418
-1.9293634503197314
-1.969196356592586
-2.0048340934682796
-2.035894119059042
-2.0619819951785243
-2.082693884417946
-2.0976200143855555
-2.1063492853433057
-2.108475217600918
-2.1036034480762407
-2.0913609842819305
-2.0714073993619624
-2.0434480926919587
-2.007249635430772
-1.9626570590936292
-1.9096127216679615
-1.8481761015379594
-1.7785435373318412
-1.7010665791271218
-1.616267286980248
-1.5248485656000157
-1.427697528466845
-1.3258800099283405
-1.2206247431706319
-1.113296414508689
-1.0053577576255264
-0.8983219720474079
-0.7936978903917804
-0.6929313008096436
-0.597346486700254
-0.5080922616737629
-0.4260965259729638
-0.35203271204543546
-0.28630054227593044
-0.2290224219835585
-0.18005563233226762
-0.1390193185488228
-0.10533411258388761
-0.07827113565376015
-0.05700621097341135
-0.04067456088605759
-0.028421254390017855