# vtk DataFile Version 4.1 
COMMENT
ASCII
DATASET STRUCTURED_POINTS 
DIMENSIONS 100 100 1 
ORIGIN 0 0 0
SPACING 0.12693303650867893 0.12693303650867893 0 
POINT_DATA 10000
SCALARS U double 1
LOOKUP_TABLE default
0.0
0.0
0.0
0.0
0.0
0.0
0.0
0.0
0.0
0.0
0.0
0.0
0.0
0.0
0.0
0.0
0.0
0.0
0.0
0.0
0.0
0.0
0.0
0.0
0.0
0.0
0.0
0.0
0.0
0.0
0.0
0.0
0.0
0.0
0.0
0.0
0.0
0.0
0.0
0.0
0.0
0.0
0.0
0.0
0.0
0.0
0.0
0.0
0.0
0.0
0.0
0.0
0.0
0.0
0.0
0.0
0.0
0.0
0.0
0.0
0.0
0.0
0.0
0.0
0.0
0.0
0.0
0.0
0.0
0.0
0.0
0.0
0.0
0.0
0.0
0.0
0.0
0.0
0.0
0.0
0.0
0.0
0.0
0.0
0.0
0.0
0.0
0.0
0.0
0.0
0.0
0.0
0.0
0.0
0.0
0.0
0.0
0.0
0.0
0.0
6.45982614527282e-13
-3.1684501315961487e-10
-3.502769980478952e-09
-1.9839243807655062e-08
-8.066775577904977e-08
-2.655632046921604e-07
-7.512664920798239e-07
-1.8911801350708889e-06
-4.333473988681474e-06
-9.182870412252885e-06
-1.8205802133660176e-05
-3.40712096686975e-05
-6.0610661073353174e-05
-0.0001030730541978975
-0.00016834241350733228
-0.0002650836335633749
-0.00040378147864565564
-0.0005966431553944125
-0.000857344073745522
-0.001200609086501352
-0.0016416361329909487
-0.0021953841198953483
-0.0028757603546693904
-0.0036947534369924447
-0.004661564157724218
-0.005781789115138679
-0.007056709429828263
-0.008482730592580057
-0.010051009946214629
-0.011747296636290035
-0.013551996195056445
-0.015440459321102348
-0.017383482800690565
-0.019348000582101434
-0.02129793520876905
-0.023195174342774023
-0.025000633952307522
-0.026675368706612843
-0.02818169090911596
-0.02948426152318204
-0.030551120101337478
-0.031354624330459324
-0.03187227411162817
-0.03208739933114678
-0.03198969455630562
-0.031575587699910264
-0.030848433221920053
-0.02981852373692455
-0.02850291710643422
-0.026925079404673084
-0.025114347777134626
-0.023105221381256702
-0.02093649347704937
-0.01865024338203552
-0.016290713303436902
-0.013903101658599855
-0.011532310769787413
-0.00922169190357269
-0.00701183351662899
-0.004939438351498442
-0.0030363311723661537
-0.0013286316371447
0.00016388279061921331
0.0014282088309194084
0.00245833680059846
0.003255253173646671
0.0038267202007532786
0.004186821468839232
0.004355258441885961
0.004356386445744816
0.004217994763980861
0.003969866602150407
0.003642196954363275
0.003263989836675673
0.002861586792950649
0.0024574825079673158
0.0020695535301745475
0.0017107656363723484
0.001389348091668956
0.0011093493425103965
0.0008714381968856707
0.0006737990017794914
0.0005129884823712327
0.00038466462269512393
0.0002841476074329377
0.0002068142479230716
0.000148352036632968
0.0001049067094371263
7.315348019821983e-05
5.031418620270757e-05
3.413580429399296e-05
2.2842140811317043e-05
1.5069189613759231e-05
9.793885454440737e-06
6.264432717961173e-06
3.937774317841024e-06
2.426273352369699e-06
1.449948405773336e-06
7.724552739074253e-07
3.369985532867852e-08
1.3335194079005547e-12
-1.1100752570758757e-09
-9.934871412836496e-09
-4.969872972111744e-08
-1.8434639880711452e-07
-5.629992905850844e-07
-1.4928199473029563e-06
-3.546873595085458e-06
-7.709739244712979e-06
-1.5557448712136746e-05
-2.9460522340475116e-05
-5.279069515883233e-05
-9.010498817430145e-05
-0.00014727666365957313
-0.00023154252060459684
-0.00035144048346984663
-0.0005166202574992145
-0.0007375219424419334
-0.0010249313130715931
-0.001389434110234965
-0.0018408033139944253
-0.0023873615132954684
-0.003035364223689642
-0.003788449063987065
-0.0046471904372440654
-0.005608790630620594
-0.006666927240122063
-0.0078117648572606615
-0.009030127286931469
-0.010305816259866362
-0.011620054425538708
-0.012952024797396626
-0.014279475886177633
-0.015579361339752483
-0.016828484646134984
-0.018004122859489675
-0.019084607833146194
-0.020049848553355443
-0.020881783382201556
-0.021564755941124444
-0.022085812698745832
-0.022434923866913814
-0.02260513184521578
-0.022592633150266377
-0.022396800545475323
-0.02202015201946033
-0.021468272452735745
-0.020749692400895803
-0.01987572658112991
-0.01886027259412786
-0.017719568418282188
-0.01647190561862431
-0.015137294429826772
-0.013737077360126044
-0.012293490170233918
-0.01082917333734816
-0.0093666434647208
-0.007927742104795582
-0.006533088027273654
-0.005201566243218179
-0.003949890666060313
-0.002792274615640648
-0.001740232640137259
-0.0008025183028466239
1.4821678159784606e-05
0.0007083205523168833
0.0012769513817867553
0.001722032815830069
0.0020472188610579306
0.002258570276450698
0.002364655119898701
0.0023765825907142144
0.002307856001208455
0.002173950616583144
0.0019915813205057978
0.0017777095059410477
0.001548421994044268
0.0013178677081094443
0.001097439401584255
0.0008953349364181071
0.0007165424098243135
0.0005631962952486858
0.00043517918255071933
0.00033081560489935585
0.0002475223907301058
0.00018232894194869186
0.00013223786739778291
9.444130625712976e-05
6.643098792507946e-05
4.6041886346950725e-05
3.1458833345639615e-05
2.1202464836119945e-05
1.4101772961374951e-05
9.256893012428662e-06
5.9957149805278825e-06
3.828630530951117e-06
2.4049402513940224e-06
1.469562232066724e-06
7.995737284152182e-07
3.557423958033978e-08
1.4203572425811896e-12
-3.6444577863043435e-09
-2.872876198419503e-08
-1.3290807641053405e-07
-4.65663764526989e-07
-1.359487143153205e-06
-3.4730267895639356e-06
-7.995132309658388e-06
-1.691115672734612e-05
-3.332207753244132e-05
-6.179444193688701e-05
-0.00010870698770283362
-0.000182550420421584
-0.0002941323354738543
-0.0004566410029356129
-0.0006855299935214226
-0.0009981996241066038
-0.001413469224281162
-0.0019508539599078169
-0.002629678909867716
-0.0034680790234532435
-0.004481944784352714
-0.00568387890725087
-0.0070822290115663475
-0.008680255471747817
-0.01047548358407951
-0.01245927618242111
-0.014616648346658774
-0.016926331259046763
-0.019361078734011782
-0.02188819833356035
-0.024470279812811826
-0.027066087138181823
-0.029631576442041393
-0.03212100078171799
-0.034488063086769646
-0.036687080768998945
-0.03867412868318504
-0.040408131037414696
-0.04185187708710229
-0.042972939700408205
-0.043744479921181995
-0.044145924315489596
-0.04416350506972362
-0.04379065546743394
-0.04302825550832527
-0.04188472408162355
-0.04037595533008259
-0.038525097725974
-0.036362175035117475
-0.03392354890790117
-0.031251223491749
-0.028391993463571397
-0.02539643859296495
-0.02231777085847548
-0.01921054487553695
-0.01612924965947699
-0.013126810168219863
-0.010253040915979722
-0.007553110724090101
-0.005066095658688075
-0.0028237131208065417
-0.0008493391118495402
0.0008425927157903247
0.0022467324392466802
0.003366458266185652
0.004213043594146102
0.004804430940154895
0.005163754365784544
0.005317785452093414
0.005295474025894111
0.005126710109725488
0.004841358029862003
0.0044685300917167
0.00403600449948385
0.0035696740181937075
0.003092946200571671
0.002626089662633321
0.002185603339609737
0.001783741143298622
0.001428327614307501
0.0011229475952396195
0.0008675047772305649
0.0006590545535350595
0.0004927589190361426
0.0003628027152555024
0.0002631476864050812
0.00018806328033871744
0.00013243525602784297
9.189556804414548e-05
6.283288211501387e-05
4.2337377331925794e-05
2.8117130146735957e-05
1.8406660248919685e-05
1.1876812931738147e-05
7.549568554446613e-06
4.718458674095254e-06
2.8680027264017577e-06
1.5518481575610115e-06
6.815493372163399e-08
-4.484531095863376e-12
-1.083137962130406e-08
-7.663728673715882e-08
-3.293464004738501e-07
-1.0893936177529032e-06
-3.031136873327905e-06
-7.426068209989201e-06
-1.6467029361092232e-05
-3.3661792234399104e-05
-6.426678290711438e-05
-0.0001157146445454352
-0.0001979763862462611
-0.0003237932464742709
-0.0005087171097227401
-0.0007709116813184866
-0.0011306882201452917
-0.0016097765653487197
-0.00223036070429815
-0.003013934279283283
-0.003980051792186563
-0.005145063435850655
-0.006520924354342021
-0.00811416293180545
-0.009925078782739055
-0.01194722161128646
-0.01416717956391178
-0.01656468266653153
-0.01911300565259036
-0.021779636667985318
-0.024527165070609733
-0.027314333285010477
-0.0300971943286328
-0.03283031766474416
-0.035467990638892874
-0.03796536995443447
-0.040279546448789436
-0.04237049592832497
-0.0442018982246928
-0.0457418153376169
-0.046963227095587465
-0.04784442893202167
-0.04836930102116671
-0.048527461142965904
-0.048314315333248356
-0.04773102076718347
-0.046784374596909144
-0.04548664081217286
-0.04385532481329294
-0.041912902472345255
-0.03968650719652556
-0.03720757507270896
-0.0345114447321972
-0.031636905297571016
-0.028625682846365758
-0.025521853490276546
-0.022371169775718194
-0.019220287195849842
-0.016115879944936424
-0.01310364067300144
-0.010227169066190566
-0.007526769528794032
-0.005038199226841364
-0.002791432872776479
-0.0008095362440261524
0.0008922395831253953
0.0023070248320591685
0.003436454772380493
0.004290287445858711
0.0048855164671013996
0.005245057418003892
0.005396158519429106
0.005368731439830773
0.005193798871835969
0.004902206909032409
0.004523664602229925
0.004086078130806485
0.0036150767004699685
0.003133607825849716
0.0026615174026909934
0.0022151069891966947
0.0018067415926302877
0.00144462867361017
0.0011328808796723718
0.0008719142493876774
0.0006591463977013186
0.0004898816229083272
0.0003582311547831162
0.00025792702418047064
0.00018293654929378664
0.0001278476722867339
8.804942797198081e-05
5.976233757645342e-05
3.997896735833669e-05
2.6363231149101302e-05
1.7139176111863272e-05
1.098410928863632e-05
6.929124742918776e-06
4.255237834443917e-06
2.323026317890478e-06
1.0206384399442533e-07
-3.5955956051624274e-11
-2.97319813738379e-08
-1.9226572666192697e-07
-7.747691489535665e-07
-2.4348738466776585e-06
-6.4892905212019476e-06
-1.5313657094430948e-05
-3.28444146262327e-05
-6.514983984248204e-05
-0.00012101339966376843
-0.00021245344222259877
-0.0003550935381947178
-0.0005683005482357708
-0.0008750233823210916
-0.001301292611071278
-0.001875375703491434
-0.002626619599675656
-0.003584046286836328
-0.004774793499414186
-0.006222508533652612
-0.007945807174077259
-0.009956902362447794
-0.012260490433975616
-0.01485295937938753
-0.017721956926813692
-0.02084632941007366
-0.024196418021250332
-0.02773467901146666
-0.031416579758382225
-0.035191713645716265
-0.03900507305275022
-0.04279842063989691
-0.04651170349925146
-0.05008446149855085
-0.053457189223631414
-0.056572619408816104
-0.05937690392615803
-0.06182067578438279
-0.06385998186610632
-0.06545708117447742
-0.06658110716407688
-0.06720859538178534
-0.06732387928176702
-0.06691935787058072
-0.06599563895424153
-0.06456156136141963
-0.06263409875523507
-0.06023814665757942
-0.05740619322541766
-0.05417787327091786
-0.05059940414957453
-0.04672290161106619
-0.04260557368863873
-0.03830879137036785
-0.03389703631198919
-0.029436728345603513
-0.024994939100189285
-0.0206380027449897
-0.01643004079485627
-0.012431425291099711
-0.008697213880979531
-0.005275601879268771
-0.0022064506830491207
0.00048003138896115095
0.002764362431940203
0.004638507079604319
0.006106131721727936
0.007182296210307773
0.007892520656578559
0.008271229384804043
0.008359657901467766
0.008203397292183069
0.007849820747508271
0.007345665007864973
0.0067350099461111045
0.0060578138000225
0.005349041333191437
0.004638303780998697
0.0039498508258751985
0.003302739942853441
0.002711056080497868
0.002184138376756858
0.0017268504753359278
0.001339971725886171
0.0010207733420437817
0.0007637875702530428
0.0005617087187126295
0.00040631500998667785
0.0002892897172154927
0.00020284921721229734
0.00014013814570635065
9.540523590058474e-05
6.400994109814924e-05
4.2322874592814165e-05
2.757625275447703e-05
1.7702909448922946e-05
1.1181051101134e-05
6.871683403470156e-06
3.750291662772934e-06
1.6406229416318168e-07
-1.5199814966947623e-10
-7.613750801358725e-08
-4.554982023303151e-07
-1.7319861013811837e-06
-5.191479914270845e-06
-1.3286736456371697e-05
-3.025395180021146e-05
-6.283431397012736e-05
-0.00012103004066945333
-0.00021879611735841083
-0.0003745531272719334
-0.0006114079731645298
-0.0009569893351189207
-0.0014428411090223838
-0.002103364432345162
-0.002974349948419727
-0.004091189043176904
-0.005486889331811736
-0.0071900412143466475
-0.009222887017927934
-0.01159963284055931
-0.014325118546916532
-0.017393927637412085
-0.020789980642916164
-0.024486617803022807
-0.028447142809077963
-0.03262577198245174
-0.03696891386679728
-0.041416693182941486
-0.04590462986761927
-0.050365387302137986
-0.05473051229038211
-0.0589321012162346
-0.06290434053205762
-0.06658488394977342
-0.06991604235510814
-0.07284577477745373
-0.07532847924201548
-0.07732559077208276
-0.07880600015511373
-0.07974631143329573
-0.08013095861219968
-0.07995220303088756
-0.0792100324471644
-0.07791198139610972
-0.07607288998775562
-0.07371461519951679
-0.07086570504027352
-0.06756104184380536
-0.06384145650963817
-0.059753310880427596
-0.055348040792200036
-0.050681647881700397
-0.04581412428942647
-0.04080879135680511
-0.035731531769207
-0.030649894891604298
-0.02563205783855278
-0.02074563061639752
-0.016056302855959256
-0.01162634244132677
-0.0075129727792355334
-0.003766675379376686
-0.0004294873346146707
0.00246661192773181
0.004901105897303783
0.006865999654415295
0.008366384241570815
0.009420368439189593
0.010058275346171394
0.010321067376928731
0.01025805692491372
0.009924067729669396
0.009376310804842575
0.008671300704460583
0.007862139389391818
0.006996427281811133
0.006114937160340959
0.005251039678543428
0.004430742736581917
0.0036731374430375614
0.0029910460252235735
0.002391728824398792
0.0018775937672497669
0.0014469222938680798
0.0010946532343133091
0.0008132468818401878
0.0005936042490555148
0.0004259704075496504
0.0003007301197414871
0.00020901726018705922
0.00014309849878561327
9.653830848574537e-05
6.418891798691403e-05
4.206560374660426e-05
2.7164242928743388e-05
1.725779568501051e-05
1.0663737734435865e-05
5.8395907144248564e-06
2.5472297212331294e-07
-5.086970591855577e-10
-1.8330072440836987e-07
-1.0239624556687072e-06
-3.693280794368221e-06
-1.0595648897423105e-05
-2.6108740784431408e-05
-5.748043018719232e-05
-0.00011579955550916622
-0.0002169164790304185
-0.000382164249920003
-0.0006387292079058599
-0.0010195436742766488
-0.0015626202114342963
-0.0023098094202978836
-0.0033050311917364665
-0.004592091971075062
-0.006212248729826504
-0.008201707859053987
-0.010589251804520763
-0.013394169343929481
-0.01662463126931125
-0.02027660796882501
-0.02433337564182863
-0.02876560975598787
-0.033532022718297805
-0.03858047076278621
-0.04384943420116942
-0.049269765349414914
-0.05476659837273899
-0.060261322981453175
-0.06567353702931286
-0.0709229093005272
-0.07593090107313513
-0.08062231178051468
-0.08492662909602391
-0.08877917633324549
-0.09212205987968193
-0.09490492647199825
-0.0970855447039269
-0.09863022759546328
-0.09951411376614765
-0.09972132417211074
-0.0992450098770505
-0.09808730426383036
-0.09625919071919062
-0.09378029433241086
-0.09067860366846131
-0.08699012628162196
-0.08275847935904115
-0.07803441472962294
-0.07287527543393747
-0.06734437912250785
-0.06151032175467404
-0.05544619347723252
-0.049228697310841806
-0.042937160594146505
-0.036652429366124686
-0.03045563744111342
-0.02442684535357503
-0.018643550141404078
-0.013179075558671103
-0.008100864084299088
-0.003468707137833148
0.000667031931314036
0.004267126787223722
0.007305031527401229
0.009768139658316988
0.011658622588159463
0.012993704400464769
0.013805239688624966
0.014138496116150468
0.014050108320842138
0.013605263720708147
0.012874292917791724
0.011928946345815436
0.010838716111777336
0.009667580399536961
0.008471492150809046
0.007296809787014654
0.006179704189028459
0.005146417014658288
0.00421413454878615
0.0033922053264406355
0.002683467743186279
0.002085538573248719
0.0015920044648013226
0.0011935209620393054
0.0008788417870004799
0.0006357824693031569
0.00045208973585784425
0.00031616567784348537
0.00021759741776125683
0.00014746764178284372
9.84565763766935e-05
6.477641569245773e-05
4.199337300979146e-05
2.678268665726083e-05
1.6607446549602646e-05
9.11058139343226e-06
3.959680815738355e-07
-1.479827706272702e-09
-4.173318162591567e-07
-2.1925515083783593e-06
-7.533706371440373e-06
-2.0747374491617712e-05
-4.9327854490296056e-05
-0.00010517861277556723
-0.00020581398649267837
-0.00037534872250291997
-0.0006450738906099728
-0.0010534442134990361
-0.0016453610159353187
-0.002470717053654211
-0.0035822603453610066
-0.005032918671135008
-0.006872791600220118
-0.009146054141745078
-0.011888022173178775
-0.015122606726051032
-0.01886033811170534
-0.023097080271569988
-0.027813489796703835
-0.03297521107791911
-0.03853374542516486
-0.04442789174924074
-0.050585631145603334
-0.05692631701863711
-0.06336303429003312
-0.06980500291072349
-0.07615991918204956
-0.08233615025513974
-0.0882447200165004
-0.09380104637523588
-0.09892640937125288
-0.10354914574164192
-0.10760557832114252
-0.11104069798575562
-0.11380862209284773
-0.11587285697731058
-0.11720639352976775
-0.11779166469290478
-0.11762039229492083
-0.11669334834918196
-0.11502005305970969
-0.11261842847897169
-0.10951442319572773
-0.10574161965994583
-0.10134083181291638
-0.09635969659368587
-0.09085225864090922
-0.0848785431165601
-0.07850410709025911
-0.07179955543902206
-0.06484000291180332
-0.05770446015463789
-0.05047511848034492
-0.04323650651116551
-0.03607449215285496
-0.029075106382388752
-0.022323171763674828
-0.015900729062089045
-0.00988527019184118
-0.0043478050114435516
0.0006491872924630645
0.005053845354952517
0.008826947013942142
0.011943734187695492
0.014395388149494492
0.016189987925233074
0.017352783926048908
0.017925638305917188
0.017965529300190332
0.017542092976698682
0.01673428068755269
0.01562633328544264
0.014303392802317582
0.012847160138992245
0.011332034605978501
0.009822119564249072
0.008369349755513256
0.007012815907601326
0.005779174926443222
0.004683887661572726
0.003732955689195634
0.002924842250339261
0.0022523404273750713
0.0017042554985819234
0.001266858754204644
0.000925122307300599
0.0006637559794680806
0.0004680535504291464
0.0003245383757366414
0.0002213938932256666
0.00014867705887999701
9.833516947876316e-05
6.406543912831698e-05
4.105397189319636e-05
2.5564557044618048e-05
1.4055932276020153e-05
6.087008121975176e-07
-3.890060210314936e-09
-9.028635067548226e-07
-4.486739138390316e-06
-1.4739426368413893e-05
-3.906393602878912e-05
-8.978694646859627e-05
-0.00018570314209531583
-0.0003534140009661406
-0.0006281959181538308
-0.001054159257579213
-0.0016835327536960998
-0.0025750140300727746
-0.0037912475365972356
-0.005395604690606527
-0.007448528965894948
-0.010003758818216878
-0.013104749135310997
-0.016781580298416143
-0.02104858165655511
-0.025902815260032037
-0.031323478820607945
-0.03727220538988636
-0.04369416965959289
-0.050519862105348576
-0.05766736404544419
-0.06504494787895948
-0.0725538341428249
-0.08009095635433033
-0.08755161138558297
-0.09483190319561356
-0.10183091770546132
-0.1084525939395219
-0.11460727970045287
-0.12021297824936338
-0.12519630564058729
-0.12949318689168915
-0.13304932372151854
-0.13582046796190023
-0.13777253375744708
-0.1388815790643754
-0.13913368338379165
-0.13852474462742145
-0.13706021389164227
-0.13475478296483548
-0.13163203576469423
-0.12772407166151895
-0.12307110578832728
-0.11772104891470497
-0.111729067176844
-0.10515711979411181
-0.09807347073366685
-0.0905521679836461
-0.08267248156134006
-0.07451828856647555
-0.06617739052907134
-0.05774074516161481
-0.04930159174071139
-0.040954447250099064
-0.032793949864671657
-0.024913528280397078
-0.017403880840396093
-0.010351258377582663
-0.0038355599528909013
0.0020717284993430098
0.0073096966225896206
0.011830187354195394
0.015599872654370564
0.01860208022811049
0.02083820028261044
0.022328488341933222
0.023112083923500268
0.023246091735013342
0.022803627510041342
0.021870817355122456
0.020542854410498173
0.01891934791265509
0.01709932576175002
0.015176343511771282
0.013234181068295742
0.011343553925613566
0.00956012877164331
0.007923938153270343
0.006460079819400477
0.005180414109656534
0.004085877235069419
0.003169024343329071
0.0024164893570926545
0.0018111625959989766
0.0013340004227288664
0.0009654627431664382
0.0006866135209991005
0.0004799250723842203
0.00032981725516464895
0.00022295473268230684
0.00014832678191158239
9.713974577659969e-05
6.254097556025758e-05
3.9098865247987175e-05
2.1537814183738367e-05
9.291116272751122e-07
-9.434899581732605e-09
-1.8634207386515283e-06
-8.800262924670815e-06
-2.7724319217694552e-05
-7.086896673298167e-05
-0.00015774039548318815
-0.00031689841724335464
-0.0005872246813195286
-0.0010183549807838603
-0.0016700386692486816
-0.002610323816420589
-0.003912625521122327
-0.005651887127853771
-0.007900163701660762
-0.010722026306223821
-0.014170197692684993
-0.018281788880287784
-0.023075423906707863
-0.028549433429354593
-0.03468118440461531
-0.04142750809305361
-0.04872610330580692
-0.05649773235314807
-0.06464899510782905
-0.07307545970157063
-0.08166494186536158
-0.09030075281383415
-0.09886477175623878
-0.10724023817359861
-0.11531419667202099
-0.1229795605729017
-0.13013678777258914
-0.13669518321135107
-0.14257385675267706
-0.14770237413214668
-0.15202114290862567
-0.1554815761355834
-0.158046074801696
-0.15968786685727285
-0.16039073655217506
-0.16014867337867308
-0.15896546548396748
-0.1568542581931631
-0.15383709435488416
-0.14994444959949754
-0.14521477224297663
-0.1396940344058659
-0.13343529785995534
-0.12649829507468552
-0.11894902282478592
-0.11085934246462918
-0.10230657751577939
-0.09337309552325739
-0.0841458572284349
-0.07471591206448165
-0.06517781498333604
-0.055628935983508127
-0.04616863090734289
-0.03689724079327369
-0.027914888182964556
-0.019320043338896163
-0.011207842434935365
-0.0036681544464405224
0.0032165856522767015
0.009373732647897157
0.014742898579305498
0.019278418882498982
0.02295166810258697
0.02575304424950468
0.02769341846182355
0.02880483953004488
0.02914029710095662
0.028772388660941436
0.02779080765176817
0.02629867370891286
0.0244078553495474
0.022233576423168686
0.019888727261052074
0.017478390491440732
0.0150951113010405
0.012815374251115508
0.010697595004176908
0.00878172092362878
0.007090304846518187
0.005630724011240679
0.004398103869786865
0.0033784926379840366
0.002551905481221583
0.0018949823162037463
0.0013831369971829897
0.000992182838284353
0.0006994833250084569
0.00048470037572311513
0.0003302106272048917
0.0002212489289627423
0.00014582359587193762
9.441124967938455e-05
5.928828613678432e-05
3.2724951406239104e-05
1.4060330163131414e-06
-2.1389016697883067e-08
-3.6814962890856026e-06
-1.6587439709289544e-05
-5.0245854191801436e-05
-0.00012411950546220072
-0.00026794268907676696
-0.0005235251037330214
-0.000945598692605892
-0.0016013699525587418
-0.002568609783114736
-0.003932320414324259
-0.005780223155017772
-0.008197474204331525
-0.0112611127388233
-0.015034765578295127
-0.019564080798922683
-0.02487325525284903
-0.030962881107079943
-0.037809188378126225
-0.045364624893102314
-0.05355960702992994
-0.06230520185733838
-0.07149646525154973
-0.08101615744232073
-0.09073858021551363
-0.10053332024203805
-0.11026873239745213
-0.11981504833668327
-0.1290470435881629
-0.13784623751750752
-0.14610263291041228
-0.15371602527557662
-0.16059692691590294
-0.16666715861634998
-0.17186016398182147
-0.17612109958247368
-0.17940674953525734
-0.18168530713981237
-0.1829360595941302
-0.183149005279035
-0.18232442703057153
-0.1804724394422235
-0.17761252364347382
-0.17377305918070562
-0.16899085951186746
-0.16331071511154638
-0.15678494614091487
-0.14947296492867856
-0.14144084698800352
-0.13276090780748118
-0.12351128104296953
-0.11377549184125939
-0.10364201669297782
-0.0932038183128456
-0.08255784050570768
-0.07180444381582038
-0.06104675813916256
-0.05038992377168694
-0.039940188196427494
-0.029803823200837114
-0.02008582687884866
-0.010888379156957983
-0.002309029219015753
0.005561390046135483
0.01264110082623772
0.01885992018378308
0.024161909652332742
0.02850800069288576
0.03187842005355044
0.03427470356644005
0.03572106467375024
0.03626488206435265
0.03597609578616156
0.034945358129134206
0.03328087664218398
0.031104009413509163
0.02854381811884555
0.025730935069159532
0.02279123138808937
0.019839854763186088
0.016976209566524837
0.014280363868925177
0.011811191562357073
0.009606321829851697
0.00768372014061944
0.006044518891855652
0.004676595566961424
0.0035583810910636737
0.002662460186993099
0.0019586640030922276
0.0014165082525239086
0.0010069590986508225
0.000703593058313964
0.0004832547305789824
0.0003263180943457052
0.0002166327001210641
0.00014116624295707668
8.911406966319648e-05
4.9308052459580465e-05
2.1096065247808704e-06
-4.572982071700875e-08
-6.9831585302255535e-06
-3.0116832608317247e-05
-8.791804998429282e-05
-0.0002102388780798796
-0.0004407891520059965
-0.0008385831324356062
-0.0014778552673292652
-0.0024461741225153604
-0.003840751503989521
-0.0057632167311589735
-0.008313350528811651
-0.01158241101886174
-0.015646719388604707
-0.020562110281253817
-0.026359713963346708
-0.03304335543623564
-0.04058866305465972
-0.04894380438565077
-0.05803162991346889
-0.06775291582530242
-0.07799035648065683
-0.08861295934129726
-0.0994805299827631
-0.11044799060318208
-0.12136934098359625
-0.13210113682898297
-0.14250542010016579
-0.15245208527220128
-0.1618207027190891
-0.17050184574482508
-0.17839798249637878
-0.1854240001096807
-0.19150742817300073
-0.19658842405254243
-0.20061957561771485
-0.20356556883931234
-0.205402759618014
-0.2061186816723988
-0.20571151571457574
-0.20418953958279407
-0.20157057444697593
-0.19788143852702791
-0.193157416794011
-0.187441752680423
-0.18078516573947898
-0.17324539731824917
-0.16488678452472522
-0.15577986097471241
-0.1460009809162378
-0.1356319612688703
-0.12475973380461351
-0.11347599705391495
-0.10187685446289026
-0.09006242178826233
-0.07813638266884264
-0.06620546681622469
-0.054378820527146855
-0.04276723465469617
-0.03148219148790058
-0.020634690215152532
-0.010333812158050121
-0.0006849933911927
0.00821201457874433
0.016265494230739634
0.02339438957796256
0.02953114109538698
0.034624611692022036
0.03864293875959133
0.04157610129622898
0.04343795489739283
0.04426746913338431
0.04412890948596613
0.043110746273190996
0.04132314986698952
0.038894044863878534
0.035963839811664185
0.03267911052450811
0.029185673005741486
0.025621609045528893
0.022110873758751835
0.01875809456711151
0.015645053958540576
0.012829143407663078
0.010343816022285318
0.008200801339023418
0.006393632339729554
0.004901915429795011
0.003695766666813465
0.002739929628609673
0.001997245462049888
0.0014313172758809566
0.001008358343718363
0.0006983123934819747
0.0004753781061005208
0.000318058133136735
0.0002087540605810284
0.0001325641591095039
7.35635316370669e-05
3.1335714971783057e-06
-9.281844564018424e-08
-1.2750833475038008e-05
-5.278677890593695e-05
-0.0001488038115756387
-0.0003449981907586947
-0.0007033924851453712
-0.0013043531826978849
-0.002244919452057974
-0.003634857748173623
-0.0055907199680481036
-0.008228492060513012
-0.011655618828697435
-0.01596325252524047
-0.021219502134241335
-0.02746428592534251
-0.03470615484501771
-0.04292120413761274
-0.0520539643456646
-0.06201998754900041
-0.07270973352215633
-0.08399331397525486
-0.09572566233786552
-0.10775174730348852
-0.11991152444343701
-0.13204440658974956
-0.1439931182632019
-0.15560687378774948
-0.1667438781914409
-0.17727319300032487
-0.18707603637389708
-0.19604660096561477
-0.2040924763810358
-0.2111347592223681
-0.21710792523989642
-0.221959527342876
-0.2256497718600536
-0.22815101463038903
-0.22944720891814113
-0.22953332908331103
-0.22841478743707458
-0.22610685664656718
-0.22263410621180815
-0.21802985867723768
-0.2123356691257989
-0.20560082992639592
-0.19788190149269955
-0.18924226882297293
-0.17975172271391754
-0.16948606367971422
-0.15852672566867507
-0.14696041555653303
-0.13487876299571522
-0.12237797338466662
-0.10955847434701155
-0.09652454303324545
-0.08338389766080648
-0.07024723194524228
-0.05722766553091748
-0.04444007749772199
-0.0320002840864301
-0.020024016904382845
-0.008625655412133467
0.0020833307910836938
0.011996266443209854
0.021013502250896057
0.029044988011247008
0.036013144867907125
0.041855947780453984
0.046530075606721476
0.05001393046118656
0.05231027749157162
0.053448219846638424
0.05348421096387163
0.052501826194268804
0.050610074633596853
0.047940132244644114
0.044640515739812495
0.040870883150385666
0.03679482379459842
0.03257216251717027
0.02835142087867328
0.02426312198402614
0.020414574171033685
0.016886616122738958
0.013732568365857605
0.010979352179414387
0.008630460521178725
0.006670252131211881
0.005068930536477827
0.0037875786038904487
0.002782730699006366
0.002010139101019154
0.0014275804483669318
0.0009967086266159625
0.0006840635800483162
0.00046136835737038803
0.0003051279391117293
0.00019501956842889727
0.00010858241216158015
4.604164687225149e-06
-1.7977619300850158e-07
-2.2465414607948565e-05
-8.949386555289106e-05
-0.0002440483992113917
-0.00054935589443051
-0.0010904333459032557
-0.0019729160977984272
-0.0033190467748510344
-0.005261073961250543
-0.007932735610522986
-0.011459790897525055
-0.015950672185751417
-0.02148825664551906
-0.028123541497702253
-0.03587170561120875
-0.04471071576760929
-0.05458234224142795
-0.06539522255995855
-0.07702947210349537
-0.08934228572271824
-0.10217399300094304
-0.11535410111528159
-0.1287069613577207
-0.14205680811941163
-0.15523202673752814
-0.1680685985774964
-0.18041274270942295
-0.1921228223779695
-0.2030706129875177
-0.21314204011162327
-0.22223749537569654
-0.2302718291735422
-0.237174105723066
-0.2428871908086811
-0.24736722771634514
-0.25058304358927863
-0.25251551733670907
-0.25315693146810536
-0.2525103236476993
-0.25058884904074635
-0.24741516125434723
-0.24302081746149093
-0.237445711780462
-0.23073753987195153
-0.22295129679460343
-0.2141488092763693
-0.20439830262183792
-0.1937740014364718
-0.18235576218708385
-0.17022873432522256
-0.15748304526325255
-0.14421350287952467
-0.1305193073760459
-0.1165037621187962
-0.10227397042120318
-0.08794050192882379
-0.07361700818413151
-0.05941976201840114
-0.045467089703382715