# vtk DataFile Version 4.1 
COMMENT
ASCII
DATASET STRUCTURED_POINTS 
DIMENSIONS 100 100 1 
ORIGIN 0 0 0
SPACING 0.12693303650867893 0.12693303650867893 0 
POINT_DATA 10000
SCALARS U double 1
LOOKUP_TABLE default
0.0
0.0
0.0
0.0
0.0
0.0
0.0
0.0
0.0
0.0
0.0
0.0
0.0
0.0
0.0
0.0
0.0
0.0
0.0
0.0
0.0
0.0
0.0
0.0
0.0
0.0
0.0
0.0
0.0
0.0
0.0
0.0
0.0
0.0
0.0
0.0
0.0
0.0
0.0
0.0
0.0
0.0
0.0
0.0
0.0
0.0
0.0
0.0
0.0
0.0
0.0
0.0
0.0
0.0
0.0
0.0
0.0
0.0
0.0
0.0
0.0
0.0
0.0
0.0
0.0
0.0
0.0
0.0
0.0
0.0
0.0
0.0
0.0
0.0
0.0
0.0
0.0
0.0
0.0
0.0
0.0
0.0
0.0
0.0
0.0
0.0
0.0
0.0
0.0
0.0
0.0
0.0
0.0
0.0
0.0
0.0
0.0
0.0
0.0
0.0
3.2301278117066886e-13
-1.5843303921675745e-10
-1.7561782336007964e-09
-9.968788716408529e-09
-4.062059288344749e-08
-1.340148265902122e-07
-3.799645756181245e-07
-9.586929289049482e-07
-2.2020064006808855e-06
-4.677763763323204e-06
-9.298045031878674e-06
-1.7447714061944872e-05
-3.112568105748009e-05
-5.308675122820885e-05
-8.696825067526497e-05
-0.00013738337911409793
-0.0002099630072377665
-0.00031132968606362426
-0.00044899189790318446
-0.0006311526533423698
-0.0008664337612398882
-0.0011635246494490815
-0.0015307716447648134
-0.0019757293762536388
-0.0025046998793180008
-0.003122286726485954
-0.0038309910339974994
-0.004630873669106978
-0.005519303779249414
-0.006490808371275705
-0.00753703162935176
-0.008646806503491231
-0.00980633529199822
-0.010999470845591946
-0.012208085886781472
-0.013412514894441781
-0.014592051071743212
-0.01572548002796982
-0.01679163182845746
-0.017769933828388835
-0.018640948014351715
-0.019386878243257785
-0.01999203461981942
-0.020443244148445238
-0.02073019862639865
-0.02084573244574336
-0.02078602451676769
-0.02055071993042671
-0.020142968294087727
-0.01956937698648574
-0.018839878987784178
-0.017967516557278185
-0.016968143945297037
-0.015860054581274187
-0.01466354074082632
-0.013400396414653917
-0.012093376708863771
-0.010765629218036064
-0.009440114002614929
-0.008139028722604875
-0.006883254027661918
-0.005691831792367792
-0.0045814860354469146
-0.003566194620302147
-0.002656820446492731
-0.0018608146792495341
-0.0011820113510238766
-0.000620540484832265
-0.00017289219554076477
0.00016783732452823865
0.0004114990264069994
0.0005702479226126665
0.0006577399141761048
0.0006882375871589371
0.0006757184390601302
0.000633086191685258
0.0005715714515557015
0.000500374267670366
0.0004265568446328733
0.00035515208286654334
0.00028942407125457655
0.0002312064101940637
0.000181252590238724
0.00013955303526858067
0.00010559681152717686
7.857478478848405e-05
5.753150797578805e-05
4.1475911604794566e-05
2.945914652796416e-05
2.062522243233814e-05
1.4238566470206747e-05
9.69265525480235e-06
6.50461349670316e-06
4.301078756563349e-06
2.8001552246702907e-06
1.792990849623521e-06
1.1266881646396873e-06
6.873310481827548e-07
3.730447098955289e-07
1.6274796974348587e-08
6.651793616732612e-13
-5.537371849212688e-10
-4.964295598163948e-09
-2.4875265078232775e-08
-9.2428581222252e-08
-2.827884268423439e-07
-7.512433017341645e-07
-1.7884541870158283e-06
-3.895577658133738e-06
-7.877949659997165e-06
-1.4952091699280527e-05
-2.685661016558489e-05
-4.5953894696428223e-05
-7.530718777080652e-05
-0.00011871723037201467
-0.00018070460621377054
-0.0002664280338533788
-0.0003815347293681902
-0.0005319458193551315
-0.0007235867034883198
-0.0009620783303686995
-0.001252409795579328
-0.0015986149940173196
-0.002003476071928261
-0.002468274250921266
-0.0029926046192400874
-0.0035742662633613583
-0.004209233284073027
-0.004891706432127492
-0.005614239849672273
-0.006367933119425438
-0.0071426757498055365
-0.007927429449381792
-0.008710533019019006
-0.009480015260063231
-0.01022390273778684
-0.010930511293769625
-0.011588712609407748
-0.01218816964731806
-0.012719537237194555
-0.013174626271874804
-0.013546531828658016
-0.013829726964096158
-0.014020124918306863
-0.014115113007719364
-0.014113561606332646
-0.014015811356288956
-0.013823641166084116
-0.013540218723773784
-0.013170034270254804
-0.012718817371060833
-0.012193435557953679
-0.01160177318674691
-0.01095258890700198
-0.010255350992160132
-0.009520051603160998
-0.008757003870115116
-0.007976629227907296
-0.0071892461239785954
-0.006404874027075809
-0.005633067310473184
-0.0048827907753305425
-0.00416234154093511
-0.0034793110994227293
-0.0028405684766707627
-0.0022522343265795226
-0.0017196111493412837
-0.0012470410139087211
-0.0008376811383763301
-0.0004932171667392901
-0.00021356677411826907
3.3485312537057305e-06
0.00016167902199507354
0.0002675044800452669
0.0003284521271153884
0.0003531098443676636
0.00035032302541858687
0.00032849503411767954
0.0002950099735781946
0.00025586259795710493
0.00021552571129181738
0.00017702910564508831
0.0001421838424374589
0.0001118714144619051
8.632813080817392e-05
6.53812768833119e-05
4.8622344859791876e-05
3.5523715976241475e-05
2.551450365745395e-05
1.803067738199512e-05
1.2549108406838183e-05
8.609686605242004e-06
5.82675916666906e-06
3.8909119131500246e-06
2.563167417510862e-06
1.6645019167684498e-06
1.0632428673269812e-06
6.604430628178185e-07
3.6436310619840943e-07
1.623245348706166e-08
7.064488169219759e-13
-1.8127711154290981e-09
-1.4310618371095595e-08
-6.630826904733834e-08
-2.3270810691617308e-07
-6.805898131853368e-07
-1.741960877636796e-06
-4.0181375279545045e-06
-8.517083196708307e-06
-1.6819711686749632e-05
-3.1264859040892136e-05
-5.513638495729856e-05
-9.283086257254694e-05
-0.00014998161964489742
-0.00023351522315957687
-0.0003516200740623905
-0.0005136132816221002
-0.0007297006318470848
-0.0010106341527568506
-0.001367281299684487
-0.001810128011235374
-0.0023487439436986816
-0.0029912415481873206
-0.0037437611575687835
-0.004610012092429556
-0.005590895439703295
-0.006684228236349899
-0.007884582001023401
-0.009183241570038754
-0.010568283585772912
-0.012024768193955064
-0.0135350328152444
-0.015079073401393918
-0.016634996373999934
-0.018179523381653774
-0.019688530938818165
-0.02113760772896295
-0.022502613655546146
-0.023760226405281436
-0.024888463168080868
-0.025867167085507146
-0.02667844985514362
-0.027307083614432858
-0.027740836705748544
-0.027970749151169295
-0.02799134462735386
-0.027800776430657904
-0.027400905375125677
-0.026797307796738203
-0.025999211883532478
-0.025019360467348754
-0.02387379828191542
-0.022581581642893853
-0.02116440873633265
-0.019646169500683288
-0.018052415838962974
-0.01640975605554277
-0.014745182411166641
-0.01308534777842391
-0.01145581637502349
-0.009880323564085568
-0.008380088941930406
-0.00697323271143757
-0.005674344542247641
-0.0044942440827380505
-0.0034399520647849127
-0.0025148625330258167
-0.0017190756770992164
-0.0010498254395656004
-0.0005019254898926402
-6.81674077673647e-05
0.00026036417244218793
0.0004940513141292838
0.0006445281268651141
0.000724419869513077
0.0007469713245501751
0.0007255376015265288
0.0006729662361856471
0.0006009523295795988
0.0005194773319654512
0.0004364346448892327
0.0003575036731388467
0.0002862739586787167
0.0002245645881045116
0.00017284990675405312
0.00013069870465937195
9.715593878029069e-05
7.10306700190642e-05
5.108669922429076e-05
3.615361190784485e-05
2.5183184903650075e-05
1.727298472829326e-05
1.1671525810665693e-05
7.772541534782314e-06
5.101982924773636e-06
3.2999720928600245e-06
2.0992708631542204e-06
1.298577500962999e-06
7.132442961959345e-07
3.1321915816951476e-08
-2.2234624523031314e-12
-5.370148950310424e-09
-3.8042527641310465e-08
-1.6371162417088418e-07
-5.423351968556463e-07
-1.511466224167076e-06
-3.709475183509904e-06
-8.240976227434742e-06
-1.6879482798955216e-05
-3.229353722645897e-05
-5.827384844934046e-05
-9.993212956471852e-05
-0.00016383897084733368
-0.00025806927648332775
-0.0003921297939590567
-0.0005767534697950742
-0.0008235584332854867
-0.0011445835337224135
-0.00155172560356887
-0.002056114265914016
-0.0026674668945215287
-0.003393468632585185
-0.004239220190961214
-0.005206790052464967
-0.006294898690880922
-0.007498751677646325
-0.008810027334481172
-0.010217014010043539
-0.011704882990460111
-0.013256076080774315
-0.014850782297290888
-0.01646747589620049
-0.018083487919900432
-0.019675585205918212
-0.021220533927839826
-0.022695628753896625
-0.024079173172676948
-0.025350901060821315
-0.026492333845602428
-0.02748707142053121
-0.028321018159486774
-0.028982547870037012
-0.029462613312883457
-0.029754807018247988
-0.029855380607516198
-0.029763229753050468
-0.029479851362097968
-0.02900927863398555
-0.028357998390468306
-0.027534853586186188
-0.026550932228707202
-0.025419442125223242
-0.02415556897086567
-0.02277631335562222
-0.021300300380517622
-0.01974755390054868
-0.018139226239219312
-0.016497274009510097
-0.0148440720796122
-0.013201961510676107
-0.01159273416253968
-0.010037066877547877
-0.008553931091997221
-0.007160017470398054
-0.0058692263733223895
-0.004692279357395496
-0.003636500396791289
-0.00270579604780123
-0.001900833099471965
-0.0012193768344669741
-0.000656723173774479
-0.00020614479723031934
0.00014071782746128184
0.0003935553662246653
0.0005631661370432534
0.0006612552209392362
0.0007001812978413737
0.0006925899913606214
0.000650916990673943
0.0005868031736225632
0.0005105136137001622
0.0004304718369834878
0.0003530014362525772
0.0002823166742338931
0.0002207418466091978
0.00016908874945795015
0.00012709844232578434
9.386074414397962e-05
6.815375347202305e-05
4.868140280175089e-05
3.421631101019441e-05
2.367106137534665e-05
1.6123800236773562e-05
1.0818643689735444e-05
7.153571599557963e-06
4.6620730276059575e-06
2.99039465396179e-06
1.8662235127963018e-06
1.0325062602108518e-06
4.5387898381496165e-08
-1.7764465095760267e-11
-1.4689587222000225e-08
-9.509266749551814e-08
-3.8367503788878945e-07
-1.207485364901395e-06
-3.223120414653539e-06
-7.61881685121214e-06
-1.6370148280779895e-05
-3.253412268329654e-05
-6.055442985171298e-05
-0.00010654068167310547
-0.00017847903861342306
-0.0002863321900122926
-0.0004419936980553866
-0.0006590744545715399
-0.0009525156352949696
-0.0013380406314005546
-0.0018314754110113339
-0.0024479803545371915
-0.0032012452311292214
-0.004102701908169084
-0.00516080674054284
-0.006380437219686447
-0.007762436707760228
-0.009303328491764483
-0.010995207487411035
-0.012825806000555776
-0.01477871996812507
-0.01683377461378651
-0.018967503656342134
-0.02115371398026958
-0.023364107672595155
-0.02556893507034179
-0.027737655421560245
-0.029839585432406467
-0.031844519909942734
-0.03372331256355308
-0.035448408544946686
-0.036994323330442565
-0.0383380650038076
-0.03945949887130675
-0.0403416546657439
-0.0409709774338101
-0.04133752362525315
-0.04143510399047697
-0.04126137471883016
-0.040817877880001546
-0.04011003172598356
-0.03914707082709819
-0.03794193540821849
-0.03651110867939291
-0.03487440048287414
-0.033054675274976596
-0.031077522395141634
-0.028970866807776507
-0.02676451908380573
-0.024489664358429225
-0.022178291412415365
-0.019862564987177235
-0.017574147184949387
-0.015343477703393945
-0.013199028199646398
-0.011166553688947606
-0.00926837353442895
-0.007522725323251414
-0.005943244441149626
-0.004538626749435024
-0.0033125270167028023
-0.0022637280591455205
-0.0013865842081369423
-0.0006717018198762763
-0.00010677835093788215
0.0003225073347071232
0.0006316655821058082
0.0008367149736638851
0.0009536879322016108
0.0009983023747094787
0.0009857318409764787
0.0009303893686289632
0.0008456602020005871
0.000743566922443379
0.0006344069482104852
0.0005264422076482459
0.00042572722387945874
0.0003361328821983115
0.00025957196339990667
0.00019638053578249922
0.0001457759651965189
0.00010630697489296492
7.623073165252973e-05
5.3784425184237806e-05
3.7350406671790975e-05
2.5535031907140472e-05
1.7189134652437476e-05
1.1395436627777215e-05
7.440372790960606e-06
4.778478492021313e-06
2.9844307239013103e-06
1.6506432425495921e-06
7.222078969796147e-08
-7.48193496853896e-11
-3.747857804778079e-08
-2.2442923738954044e-07
-8.543577273818094e-07
-2.5642590509980603e-06
-6.572447279672253e-06
-1.4989471062430365e-05
-3.1185367932698435e-05
-6.017967640554673e-05
-0.00010900621604673551
-0.0001869960738755829
-0.0003059219440023899
-0.0004799557968143777
-0.0007254088578714233
-0.0010602455656949698
-0.0015033880900153418
-0.0020738514186101694
-0.0027897677023747377
-0.003667370199033677
-0.004720010733472382
-0.005957280303753634
-0.007384291552121644
-0.009001166228742044
-0.01080275274358476
-0.012778580611233298
-0.0149130418917875
-0.017185775962120953
-0.019572223895374132
-0.022044312628213613
-0.0245712267581005
-0.027120226721653415
-0.02965747555840871
-0.03214884169179952
-0.034560651416748855
-0.03686037141757821
-0.03901720812535981
-0.04100261667517966
-0.042790717390770665
-0.044358621974054546
-0.04568667487189889
-0.04675861766238439
-0.04756168582370259
-0.04808664802058544
-0.04832779817421655
-0.0482829101763888
-0.04795316426019221
-0.04734305282500642
-0.0464602719940143
-0.04531560340488663
-0.04392278873731307
-0.042298397303058045
-0.04046168471428326
-0.038434438276146336
-0.036240802427496825
-0.03390707543025872
-0.031461466781904444
-0.028933803735204672
-0.0263551751218099
-0.023757501670577216
-0.021173024471718132
-0.01863370745553322
-0.01617055603559175
-0.013812862706484618
-0.011587401559029736
-0.009517607174189733
-0.007622788185974359
-0.00591743973441537
-0.00441072838033533
-0.003106223057753941
-0.0020019316860164587
-0.0010906727472817564
-0.00036076651371219626
0.00020302045597441688
0.0006183885623614908
0.000904410979031198
0.0010805594799179223
0.0011659381734851777
0.0011787521574557118
0.0011359759977570087
0.0010531455372800745
0.0009441902879950672
0.0008212526489496067
0.0006944896373296162
0.0005718995812978196
0.00045923943274654884
0.00036008882921358023
0.0002760807332721139
0.00020727255548553243
0.00015259555946803396
0.00011030685025300624
7.837896658605226e-05
5.478882772602084e-05
3.769805864677166e-05
2.5539981125558293e-05
1.7039851451702042e-05
1.119483549363444e-05
7.231500630899845e-06
4.538942394938604e-06
2.5174010761844964e-06
1.0984388102489953e-07
-2.4943970956358847e-10
-8.988394213217646e-08
-5.025407223917424e-07
-1.8145420422304059e-06
-5.212254823861953e-06
-1.286152549844249e-05
-2.8359221666980382e-05
-5.7227523382600415e-05
-0.0001073911999743943
-0.00018956491566970323
-0.00031747547614125544
-0.0005078543211754855
-0.0007801573582977429
-0.00115599902312639
-0.00165832041107701
-0.0023103422528357146
-0.0031343778692892107
-0.00415059593624739
-0.005375826615996171
-0.006822497854176868
-0.008497773319867872
-0.01040294241645131
-0.01253308917004665
-0.014877043578882032
-0.017417598579118027
-0.020131959770242406
-0.022992384241411926
-0.02596695930138863
-0.0290204711127334
-0.0321153162609265
-0.03521241506520548
-0.038272092860860064
-0.04125490356347762
-0.044122377761532224
-0.04683768479124706
-0.049366204360901965
-0.05167600813718734
-0.05373825526417671
-0.05552750814722339
-0.057021976160258434
-0.058203695420255525
-0.05905865261787353
-0.05957686028582343
-0.05975238998797645
-0.05958336885245663
-0.05907194374759314
-0.05822421627588414
-0.057050150675718794
-0.0555634556885759
-0.05378144046881732
-0.05172484367125938
-0.04941763393179981
-0.04688677904626916
-0.04416198025420372
-0.04127536717449183
-0.03826114818244435
-0.03515521047220424
-0.03199466387428313
-0.028817322903155182
-0.025661122741700737
-0.02256346720481986
-0.019560510462906997
-0.01668637976238102
-0.013972353861634076
-0.011446021617277972
-0.009130457016686756
-0.007043460213808292
-0.005196926949878485
-0.003596417886688316
-0.0022410003465034843
-0.0011234229294617543
-0.00023065518966358
0.00045521942476340894
0.0009558225756797747
0.0012951281012935861
0.0014980867090205023
0.0015893809905625554
0.0015924313885165298
0.0015287133614071116
0.001417375178634927
0.0012750874247359203
0.0011160281559512042
0.0009519181652369388
0.0007920601109954596
0.0006433832679769837
0.0005105304139923234
0.00039603100727841895
0.000300585119196253
0.00022344762728403124
0.00016286924210232766
0.00011653397620199126
8.193655684632125e-05
5.666341863545917e-05
3.856715110542144e-05
2.584646603466083e-05
1.705548611972215e-05
1.1064386360870054e-05
6.970480040840719e-06
3.872842626237355e-06
1.6835960671563353e-07
-7.227646466592346e-10
-2.0383602581169194e-07
-1.0717354446225456e-06
-3.6862484519912806e-06
-1.0163769871714689e-05
-2.4197263596980417e-05
-5.1670695585683025e-05
-0.00010127252089120875
-0.00018501489899002118
-0.00031855953011931644
-0.000521262361157078
-0.0008158767777690016
-0.001227893809280349
-0.0017845416761494723
-0.0025135084432025136
-0.0034414842408169474
-0.004592639138433294
-0.005987157521543992
-0.0076399404718177355
-0.00955956691945426
-0.011747576188274366
-0.01419810333230842
-0.016897868370012597
-0.01982649430792057
-0.022957108747015138
-0.026257170780672065
-0.029689458729083885
-0.03321315417735009
-0.036784962505417164
-0.04036021814717609
-0.043893932758112875
-0.047341755057515575
-0.05066082136430971
-0.05381048508328378
-0.05675292121805663
-0.059453608221134095
-0.06188169415105657
-0.06401025732410956
-0.06581647362452711
-0.0672817036009074
-0.06839151265264162
-0.06913563720031121
-0.06950790890601183
-0.0695061478933625
-0.06913203460548328
-0.06839096849235382
-0.06729192016892895
-0.06584728204318994
-0.06407272067535874
-0.06198703228478954
-0.05961200085884017
-0.05697225623645148
-0.054095127355003096
-0.05101048360842546
-0.04775055505444299
-0.044349720167399555
-0.04084424815738513
-0.03727198182349859
-0.03367194678776711
-0.03008387410575472
-0.026547626006835887
-0.023102519174955462
-0.019786546750661868
-0.01663550921483227
-0.013682075458315734
-0.010954808405947477
-0.008477203978459658
-0.0062668068086949085
-0.004334478961841788
-0.0026839057874683383
-0.001311421758441958
-0.00020622427129501274
0.0006489882128402211
0.0012769652094607353
0.0017045103649179405
0.0019608720044286816
0.0020760864580141956
0.00207945329294785
0.0019982947938844923
0.0018570919231686183
0.001677011547003704
0.0014757678764610448
0.0012677161666546433
0.0010640697550795967
0.0008731586890914687
0.0007006929742587921
0.0005500345168533216
0.000422502650391854
0.00031773379597669005
0.00023409351881004383
0.00016911316865397905
0.00011990685602576866
8.35243898264015e-05
5.721019110660648e-05
3.85593276797653e-05
2.5580083685228464e-05
1.6678184236121925e-05
1.0553181920276547e-05
5.876547535620651e-06
2.5455304471804115e-07
-1.8922570957538653e-09
-4.391990903297297e-07
-2.1841551453110246e-06
-7.18202171222541e-06
-1.9056109743934225e-05
-4.385622106630995e-05
-9.083610447211203e-05
-0.0001731419063865629
-0.00030828243494810786
-0.0005182631330338809
-0.0008292991445730291
-0.0012710730174543083
-0.0018755603414204326
-0.0026755018291142237
-0.003702644043914367
-0.004985897033487092
-0.006549563069175267
-0.008411777623234367
-0.010583275558813351
-0.013066557849028932
-0.01585549301892784
-0.01893534836998877
-0.022283213065261147
-0.025868750872257484
-0.029655205719230693
-0.03360057779945251
-0.03765889036731219
-0.04178147567038018
-0.04591822054762076
-0.050018726121106735
-0.0540333500673999
-0.05791411294642406
-0.06161546119686037
-0.06509488827772186
-0.06831342196365138
-0.07123599013462305
-0.0738316798319922
-0.07607390524676892
-0.07794050004209145
-0.07941374834523875
-0.08048036718216334
-0.08113145131733313
-0.08136238959058031
-0.08117276004082126
-0.08056620945458176
-0.07955032151482308
-0.07813647645916433
-0.07633970406681213
-0.07417853084060874
-0.07167482137941628
-0.06885361308048218
-0.06574294239990264
-0.062373659862269885
-0.05877922979116807
-0.05499550930090779
-0.05106049946335248
-0.047014059825733465
-0.04289757577751163
-0.03875356692022367
-0.03462522396086607
-0.03055586218871074
-0.02658828181179816
-0.02276402980389267
-0.019122564823065392
-0.01570033639993542
-0.012529801880550804
-0.009638419117968713
-0.0070476687431200785
-0.004772175476469201
-0.002819010985081084
-0.0011872678779701678
0.00013200861487940596
0.0011554621547831027
0.0019066054675245894
0.0024145557791164195
0.002712403934698926
0.0028353566280523547
0.00281883611459233
0.0026967360517924296
0.0025000074302316457
0.0022556876212011913
0.0019864030334906884
0.0017102943713177996
0.001441255628453596
0.0011893576359817712
0.0009613440605315809
0.0007611288124755789
0.0005902687520168071
0.00044841664852522965
0.0003337683355212068
0.00024350808728281303
0.00017423835804712773
0.00012236625548612932
8.441681082849014e-05
5.725228784428053e-05
3.819084198383124e-05
2.5023895603568403e-05
1.5899940956713952e-05
8.871501977273515e-06
3.8279355499667114e-07
-4.570521705629537e-09
-9.027272219285564e-07
-4.266129538822568e-06
-1.3452153986628774e-05
-3.442379462521149e-05
-7.671594411005442e-05
-0.00015433523463196215
-0.00028642460507843426
-0.0004975342423655955
-0.0008173799332997018
-0.001280033448358304
-0.0019225651780828885
-0.0027832327874336275
-0.0038993684920807957
-0.0053051529625291255
-0.007029472249893656
-0.009094036994761794
-0.011511905984000871
-0.014286506606978326
-0.017411191215167376
-0.020869318159231397
-0.024634804822973585
-0.028673070449202035
-0.032942269884852146
-0.03739471466903434
-0.0419783830183147
-0.046638432468930555
-0.05131864535382886
-0.055962755348262026
-0.06051562095731064
-0.06492422760313347
-0.06913851305923614
-0.07311202104608172
-0.07680239490870586
-0.08017172776344057
-0.08318678778920835
-0.08581913795712709
-0.08804516892666726
-0.08984606250993789
-0.09120770135639655
-0.09212053858876074
-0.09257943919613469
-0.09258350316259975
-0.09213587862540061
-0.09124357182410815
-0.0899172592025014
-0.08817110572433812
-0.08602259222044903
-0.08349235335223848
-0.08060402651038764
-0.0773841106242389
-0.07386183239834931
-0.07006901588695578
-0.06603994954633988
-0.0618112429723408
-0.0574216634721846
-0.0529119405226636
-0.04832452418515887
-0.043703281922693515
-0.039093117333353626
-0.03453949451150343
-0.030087853577923703
-0.02578290690647488
-0.02166781218175944
-0.017783227951903926
-0.014166269826147486
-0.010849400571166559
-0.007859304284996213
-0.0052158122246810665
-0.002930963732106687
-0.0010082972886328694
0.0005575294758666119
0.0017806999783770493
0.0026837116901079947
0.0032963354594839085
0.0036540914768230224
0.003796338392356739
0.0037641357717690884
0.003598085938182911
0.003336374802851867
0.003013204266130649
0.0026577436538424977
0.0022936387779191876
0.001939027160338799
0.0016069400458945836
0.0013059416026661792
0.001040865356968616
0.0008135462469125697
0.0006234947535144601
0.00046849909453769786
0.0003451619707497903
0.0002493798392542258
0.00017676316102251675
0.00012298590322444786
8.404878406294999e-05
5.644303193161218e-05
3.71977784253131e-05
2.374321072552638e-05
1.3274290774355816e-05
5.704699912690685e-07
-1.0318034539225697e-08
-1.7760251253874399e-06
-8.007183513026276e-06
-2.42759022599752e-05
-6.003012914115442e-05
-0.00012974604837183746
-0.0002538490869132561
-0.00045918765957635605
-0.0007788928929003115
-0.0012515365912352493
-0.0019195978547080887
-0.00282734661357904
-0.004018332002366291
-0.0055327123510737
-0.007404676238832251
-0.009660182356285485
-0.012315197308501585
-0.015374545634133095
-0.018831416585847027
-0.02266750758177339
-0.02685373193295414
-0.031351382454702606
-0.036113623769060445
-0.04108718293778855
-0.04621411737134659
-0.05143355684777977
-0.05668333904782632
-0.061901481874739615
-0.06702745837452237
-0.07200325957683262
-0.07677424613004313
-0.0812898009692317
-0.08550380268390206
-0.08937494329668377
-0.0928669155229654
-0.0959484939746729
-0.09859353286014896
-0.10078090007152597
-0.10249436457278108
-0.10372245101597609
-0.10445827272301449
-0.10469935169167499
-0.10444743216820179
-0.10370829257894046
-0.10249155920502463
-0.10081052387366314
-0.09868196707362224
-0.09612598722177552
-0.09316583624843004
-0.08982776116343431
-0.08614085073934136
-0.08213688582306314
-0.07785019098063493
-0.07331748410931556
-0.06857771924702923
-0.06367191602793504
-0.05864296708061087
-0.0535354122240217
-0.04839516577358378
-0.04326918094387464
-0.03820503368988934
-0.033250407966604265
-0.02845246600543421
-0.023857091521257062
-0.019508001387584847
-0.015445732611484065
-0.011706526357818707
-0.00832114872176018
-0.005313707688591019
-0.0027005453039146508
-0.0004893008382284839
0.001321748674517294
0.0027439635550891486
0.003798138597099421
0.004513758824657848
0.0049276987310722005
0.00508241312447126
0.005023738300854712
0.00479848751702628
0.004452069205954469
0.0040263660120242175
0.0035580800432226537
0.003077677986042465
0.0026089737617440334
0.0021692891080455287
0.0017700575139789519
0.001417700585077557
0.0011146115135251566
0.0008601179697228458
0.0006513482693930975
0.00048397156411555617
0.00035281307975497064
0.0002523567102158805
0.00017714504562513862
0.00012207936063430915
8.261329671609419e-05
5.481361097593521e-05
3.5175096391569275e-05
1.9713706712732618e-05
8.436296240419917e-07
-2.1966530007023365e-08
-3.354546273489743e-06
-1.4476131895643162e-05
-4.229419490612087e-05
-0.00010124058638381447
-0.00021251066247132786
-0.0004048252529149726
-0.0007144717267389447
-0.0011844871110805568
-0.0018629721631406681
-0.0028006551153511527
-0.004047932157350181
-0.005651680195335485
-0.00765215770555248
-0.010080283467329662
-0.012955520584089539
-0.01628450906096986
-0.020060499864166016
-0.024263560380076033
-0.028861455160617635
-0.03381106183618134
-0.0390601608769666
-0.044549436957296545
-0.050214544439895405
-0.05598811453105857
-0.061801611710885856
-0.06758697769851042
-0.07327802922972282
-0.07881159930266085
-0.08412842939480165
-0.0891738324494812
-0.09389815374395295
-0.09825705998754442
-0.1022116871801518
-0.10572867587403915
-0.10878011937878473
-0.1113434468042048
-0.1134012591349966
-0.11494113308740783
-0.11595540448353472
-0.11644094035590727
-0.11639890695242495
-0.1158345391926674
-0.11475691585203936
-0.11317874373524912
-0.11111615326535797
-0.10858850718970314
-0.10561822343236923
-0.10223061245850329
-0.09845372882045539
-0.09431823579466105
-0.08985728115553172
-0.08510638112791534
-0.08010330836663983
-0.07488797838086439
-0.06950232710846241
-0.06399017032868662
-0.0583970333023812
-0.05276993654702257
-0.04715712119966142
-0.04160769534942393
-0.0361711815506987
-0.030896946131889248
-0.02583349367279681
-0.021027615924450346
-0.016523394134943786
-0.012361067541120199
-0.008575798480205806
-0.005196385262591899
-0.002243995916368836
0.00026898337289217524
0.0023398751382673125
0.003976295066096898
0.005196280905166742
0.006027873502979316
0.006508096650563781
0.006681339287696022
0.006597213864111743
0.006308038988989069
0.00586615935736016
0.0053213558652944245
0.004718600685964235
0.004096369953004499
0.003485645496344591
0.002909632921354861
0.0023841197247699533
0.0019183178562721982
0.0015159963521163304
0.0011767148240678588
0.0008970081116920157
0.0006714284375634452
0.0004934051950770187
0.00035592104833914224
0.0002520220862304584
0.00017518205194629876
0.00011952900908695261
7.990474794473308e-05
5.158988626050784e-05
2.8997825912894997e-05
1.235495556463214e-06
-4.4395029452534884e-08
-6.099016526851243e-06
-2.5263624203490537e-05
-7.127397512218708e-05
-0.00016540917044473587
-0.0003376260761419696
-0.0006268922791633965
-0.0010804846449629657
-0.0017522022358900844
-0.002699613759630017
-0.00398060756503324
-0.005649609443844346
-0.007753866922520677
-0.010330169654222237
-0.0134022969196212
-0.016979374862323152
-0.021055209192417317
-0.02560855216694298
-0.030604178689790106
-0.03599459193234104
-0.04172215461175268
-0.047721444146737
-0.0539216518364885
-0.06024888052621313
-0.0666282349000617
-0.07298563784390569
-0.07924934121114026
-0.08535112748838676
-0.09122721945942205
-0.09681892828133076
-0.10207307740630041
-0.10694224185003011
-0.11138484084230803
-0.11536511819937437
-0.11885303990927992
-0.12182413323322168
-0.12425928665142358
-0.12614452555101874
-0.12747077481929586
-0.12823361649677137
-0.12843304830905178
-0.1280732471394266
-0.12716234021477005
-0.1257121858470904
-0.12373816490586104
-0.12125898371290639
-0.11829648868947693
-0.11487549279532938
-0.11102361354200796
-0.10677112210023823
-0.10215080271502427
-0.09719782124474823
-0.09194960109418227
-0.08644570404537301
-0.08072771242472367
-0.07483910759773281
-0.06882513788696241
-0.0627326666337268
-0.056609988309418435
-0.05050659747704533
-0.04447289230602822
-0.038559791735530494
-0.032818243942076955
-0.02729860434786403
-0.02204986495766132
-0.017118724248017532
-0.012548498834202502
-0.008377894923711344
-0.004639678644690866
-0.0013593083389671463
0.0014463835202533804
0.0037703492714036085
0.00561620122919872
0.00699867440692453
0.007943559363278143
0.008487017368658074
0.008674239190480753
0.008557475204350578
0.008193541797924687
0.0076409861223400875
0.006957153624715306
0.006195435216320959
0.005402961681329562
0.004618958338476155
0.003873880341018509
0.0031893362837524222
0.002578699290724839
0.002048224036160837
0.0015984506058346827
0.0012256843530741805
0.00092338486896928
0.0006833587931321698
0.0004967113922547654
0.00035455668978652923
0.00024850865687016133
0.00017097199616574035
0.00011519861801763928
7.487246261182116e-05
4.222666139173391e-05
1.7909089591724414e-06
-8.561620262398967e-08
-1.0699428333457606e-05
-4.264601091165726e-05
-0.0001163848336911994
-0.0002622339183275348
-0.0005210973125909256
-0.0009440118695454055
-0.001590349712168815
-0.002524780717714371
-0.003813301241062603
-0.005518774630569032
-0.007696484662064574
-0.010390174203316178
-0.013628944565881922
-0.017425252578622492
-0.02177409148155977
-0.026653303641814705
-0.03202486556590939
-0.03783691748430532
-0.04402628146414877
-0.050521217991970735
-0.05724420215719221
-0.06411454676737322
-0.07105075153408327
-0.07797250743122346
-0.08480232842060288
-0.09146681630932067
-0.09789758787179628
-0.10403190727886082
-0.10981307292258756
-0.11519060786646378
-0.12012029933965507
-0.12456412664523661
-0.1284901099201531
-0.13187210533532742
-0.13468956616470024
-0.13692728399268828