# vtk DataFile Version 4.1 
COMMENT
ASCII
DATASET STRUCTURED_POINTS 
DIMENSIONS 100 100 1 
ORIGIN 0 0 0
SPACING 0.12693303650867893 0.12693303650867893 0 
POINT_DATA 10000
SCALARS U double 1
LOOKUP_TABLE default
0.0
0.0
0.0
0.0
0.0
0.0
0.0
0.0
0.0
0.0
0.0
0.0
0.0
0.0
0.0
0.0
0.0
0.0
0.0
0.0
0.0
0.0
0.0
0.0
0.0
0.0
0.0
0.0
0.0
0.0
0.0
0.0
0.0
0.0
0.0
0.0
0.0
0.0
0.0
0.0
0.0
0.0
0.0
0.0
0.0
0.0
0.0
0.0
0.0
0.0
0.0
0.0
0.0
0.0
0.0
0.0
0.0
0.0
0.0
0.0
0.0
0.0
0.0
0.0
0.0
0.0
0.0
0.0
0.0
0.0
0.0
0.0
0.0
0.0
0.0
0.0
0.0
0.0
0.0
0.0
0.0
0.0
0.0
0.0
0.0
0.0
0.0
0.0
0.0
0.0
0.0
0.0
0.0
0.0
0.0
0.0
0.0
0.0
0.0
0.0
1.0463578296610274e-12
-5.132231934000641e-10
-5.77833019729175e-09
-3.3220475334362184e-08
-1.370210603656296e-07
-4.575692236912919e-07
-1.3133544812806395e-06
-3.3555559400585087e-06
-7.806946672275534e-06
-1.6804359828689296e-05
-3.385691428077685e-05
-6.442030584172485e-05
-0.00011657153633766325
-0.00020175022552636998
-0.0003355145881230253
-0.000538245019604339
-0.000835718593930286
-0.001259475561593316
-0.0018469050900799281
-0.002640991812582491
-0.003689685951074145
-0.005044885691085639
-0.00676104841529849
-0.00889347452805272
-0.011496331344843647
-0.014620502846447331
-0.018311362706503156
-0.022606572394468664
-0.027534003588650824
-0.033109875486929854
-0.03933718419678438
-0.04620448477932542
-0.05368506831577309
-0.06173655804187123
-0.0703009314013993
-0.07930495974093098
-0.08866104490592853
-0.09826842248001298
-0.1080146948241837
-0.11777765317648498
-0.12742734644789766
-0.13682835446776895
-0.14584222470616018
-0.1543300333370714
-0.16215503334326736
-0.16918535370279178
-0.17529671413402031
-0.18037511912153936
-0.18431949284757784
-0.18704421321382686
-0.18848149851451546
-0.18858359481625797
-0.18732470612151053
-0.18470260338322358
-0.1807398427825547
-0.17548451861841927
-0.16901047176193013
-0.16141687094470242
-0.15282708156159122
-0.14338673653059034
-0.13326092916449658
-0.12263046439659334
-0.11168713966282079
-0.100628088531808
-0.08964931448493374
-0.07893866762561479
-0.06866866037840985
-0.058989652384288896
-0.05002402167138247
-0.04186193867234866
-0.03455924390274663
-0.028137698233099986
-0.02258756131768531
-0.017872125252257804
-0.013933567189103114
-0.01069935367493849
-0.008088459741978915
-0.0060168358311427275
-0.00440180203620801
-0.003165292303932587
-0.0022360467954583383
-0.0015509319893032513
-0.0010555696310535659
-0.0007044171281012267
-0.0004604045250313511
-0.00029421962282238966
-0.00018334200110021936
-0.00011094168136701468
-6.476054580093972e-05
-3.607603026599569e-05
-1.8811508304271185e-05
-8.818395054413007e-06
-3.323299038974518e-06
-5.156037518185529e-07
7.54091668701752e-07
1.1909625061844084e-06
1.2078825827450055e-06
1.022585644823784e-06
6.915118274057485e-07
3.0168540922456926e-08
2.1237677054082517e-12
-1.7682466758056035e-09
-1.601502990390361e-08
-8.104392092445042e-08
-3.041761449390896e-07
-9.403489005125046e-07
-2.5250966704868108e-06
-6.078737519588605e-06
-1.3394178957545495e-05
-2.7411791010635257e-05
-5.2671778411988504e-05
-9.581899116853132e-05
-0.00016611955819926033
-0.0002759359183790671
-0.0004410993809645831
-0.0006811191620399165
-0.0010191746693633777
-0.0014818531021468652
-0.0020986154551345107
-0.0029009981536635503
-0.0039215817715725675
-0.0051927796564944645
-0.006745515391533461
-0.008607867274694975
-0.010803759786341457
-0.013351776676932823
-0.016264158967241975
-0.019546035477524756
-0.023194915417785095
-0.027200453998571662
-0.03154448465588174
-0.036201296645858014
-0.04113812532769558
-0.04631581483422055
-0.05168960903854748
-0.05721002644535271
-0.06282377732193221
-0.06847468636371454
-0.07410459074652388
-0.07965419086702617
-0.08506383880252008
-0.09027425702236187
-0.09522718675568324
-0.09986597136553622
-0.10413608488595925
-0.10798561940011973
-0.11136574707904531
-0.11423117340803567
-0.11654059739625797
-0.11825719246032185
-0.11934911837200067
-0.11979007049895593
-0.1195598680714546
-0.1186450790759573
-0.11703967635878788
-0.11474571815309462
-0.11177404639964861
-0.1081449966049752
-0.10388911062083535
-0.09904783404704358
-0.09367415759096809
-0.08783312260363717
-0.08160205562359472
-0.07507033364920507
-0.06833842987984692
-0.06151597662583077
-0.05471863807509366
-0.048063731027267784
-0.04166476311571675
-0.035625337876499914
-0.03003313347252439
-0.024954809412508727
-0.02043265923503259
-0.016483580217363805
-0.013100516185624727
-0.010256053951545939
-0.007907456749278854
-0.00600221773729266
-0.004483263293608537
-0.0032931910437113588
-0.0023772828105446567
-0.0016853581908609877
-0.001172734152067459
-0.0008006016641799924
-0.0005360602612530488
-0.00035193888605789794
-0.00022644324511241002
-0.00014263777052286536
-8.778628893152659e-05
-5.2608999289983696e-05
-3.053432616026819e-05
-1.701903251465477e-05
-8.983487838801246e-06
-4.375967510517463e-06
-1.8540676252772982e-06
-5.589766422216585e-07
4.189388547160163e-08
2.611050839614481e-07
2.5112048514618455e-07
1.1629118821497643e-08
2.2164249118999697e-12
-5.68957452055269e-09
-4.531371485884245e-08
-2.119323946323712e-07
-7.5117889173396e-07
-2.2200296367720454e-06
-5.744930129486098e-06
-1.3405060063925967e-05
-2.875752539023296e-05
-5.7505680943294385e-05
-0.00010829099286288102
-0.00019356557512630106
-0.00033048038062861914
-0.0005417067620491707
-0.0008560999246674779
-0.001309113656002404
-0.0019428870700035738
-0.00280594480256265
-0.003952479684612119
-0.005441218107342486
-0.007333899520792123
-0.009693429485075964
-0.0125817878331048
-0.016057788166959255
-0.020174791484554144
-0.02497847554715643
-0.030504753723722224
-0.03677792404421564
-0.04380911284220516
-0.05159505943474871
-0.06011727034845658
-0.06934155491833086
-0.07921793956120013
-0.08968094619531991
-0.10065021135279797
-0.11203141645664154
-0.12371749625728867
-0.13559009116326276
-0.14752120970579724
-0.15937506917309682
-0.1710100850707313
-0.18228098307388169
-0.1930410101356916
-0.20314422404230742
-0.2124478426290938
-0.22081463478608127
-0.2281153349889489
-0.23423106110831424
-0.23905571140254062
-0.2424983106553161
-0.2444852672429743
-0.24496249256937108
-0.24389732220067462
-0.24128016513284467
-0.23712579565691969
-0.23147419387496937
-0.22439083950195313
-0.21596637294471632
-0.2063155608770892
-0.19557554148814327
-0.18390337410534738
-0.17147297052281624
-0.1584715276400888
-0.14509559741948522
-0.13154690900350674
-0.11802799888593792
-0.10473762594571329
-0.09186588516264199
-0.07958893311444497
-0.06806333764096242
-0.057420269705050285
-0.04776002541999731
-0.03914761076184856
-0.03161022855775533
-0.025137387321999584
-0.019683984183472773
-0.015176173754403614
-0.011519275264185965
-0.00860657069064027
-0.006327738456038119
-0.004575877907479071
-0.003252521195855044
-0.0022705383101093777
-0.0015552520547281398
-0.0010442909997940765
-0.0006867124456122266
-0.00044179414034799946
-0.0002777219044386336
-0.00017026851659886585
-0.00010149732962920469
-5.851794414661102e-05
-3.233622070140548e-05
-1.684742328316623e-05
-8.008460611497657e-06
-3.1992672421945313e-06
-7.576073167507966e-07
3.433929955506946e-07
7.051784458199616e-07
6.127513254858186e-07
2.685481908095589e-08
-6.841455784612042e-12
-1.652119189036783e-08
-1.1792203361210095e-07
-5.117798729920594e-07
-1.7110994560025552e-06
-4.816070218084411e-06
-1.194402136576366e-05
-2.6828702297105048e-05
-5.5589120520846754e-05
-0.00010764003868232756
-0.00019668492795541455
-0.0003417030953832105
-0.0005678214564262869
-0.0009069526261464908
-0.001398087294155819
-0.0020871503623255566
-0.0030263646887996195
-0.004273109119143558
-0.00588830325013565
-0.007934394325492113
-0.010473056780523106
-0.013562738602373127
-0.017256198983247276
-0.021598178649731768
-0.026623329259088273
-0.03235450402438244
-0.03880148157361925
-0.045960162420821446
-0.053812245511303744
-0.06232536370269152
-0.0714536336122246
-0.08113855806050467
-0.09131020869506017
-0.10188861199397907
-0.11278526298933633
-0.12390469669018384
-0.13514605617911662
-0.1464046075634848
-0.15757316434072743
-0.16854339640525198
-0.17920701118718693
-0.1894568057650288
-0.19918759889802182
-0.2082970605807124
-0.2166864638290944
-0.22426138891567632
-0.23093241413802754
-0.23661582935397035
-0.24123440878974672
-0.2447182777518591
-0.24700590343068513
-0.248045232405873
-0.24779498606951741
-0.24622610929631986
-0.24332334686720908
-0.2390868965552609
-0.23353405866570753
-0.22670077203685893
-0.21864290078182283
-0.20943712069079756
-0.19918125589455457
-0.18799393986714405
-0.17601351998069775
-0.16339618402521922
-0.15031334493259826
-0.13694835662229832
-0.12349263328429715
-0.11014120462665726
-0.09708768141675975
-0.08451857249963066
-0.07260693938578597
-0.06150553467108433
-0.051339838895578326
-0.042201719128555255
-0.03414466299197969
-0.027181565302587998
-0.0212857810523473
-0.016395627048769526
-0.012421845838355594
-0.009256942773541697
-0.006784967302778769
-0.00489034054287533
-0.0034647053544517785
-0.0024113444480211156
-0.0016472761410400796
-0.0011035294615597093
-0.0007242479000838103
-0.00046520583670661263
-0.0002921412206365494
-0.00017911809973113606
-0.00010700075092248326
-6.2062405837568e-05
-3.4742685362061964e-05
-1.857467064684975e-05
-9.301700570387837e-06
-4.190278319873218e-06
-1.5266125597596505e-06
-2.7130908707922467e-07
1.5536652894840942e-07
7.345731739191603e-09
-5.3457275120673954e-11
-4.42071680801907e-08
-2.8810668732853857e-07
-1.1717038845643552e-06
-3.7203195489390253e-06
-1.00265576417132e-05
-2.3946162254866245e-05
-5.201715922597852e-05
-0.00010457683618583402
-0.0001970110593792353
-0.00035103219577733936
-0.0005958529703430899
-0.0009691101208092857
-0.001517397247742882
-0.002296290964932423
-0.0033697951962814205
-0.004809179537083786
-0.006691241919469337
-0.009096076264421413
-0.012104466364877045
-0.015795053872373777
-0.02024143921262972
-0.02550937003007815
-0.031654154672667266
-0.038718411785811715
-0.046730235310898975
-0.05570182099750097
-0.06562856928219879
-0.07648865254032647
-0.08824301379035693
-0.10083574951044312
-0.11419482112636203
-0.12823303719903395
-0.14284925028510134
-0.1579297176339143
-0.17334958211109433
-0.1889744379336524
-0.20466195409966745
-0.22026353615977148
-0.23562601378989986
-0.2505933472550634
-0.2650083502186795
-0.27871442946828306
-0.29155734407111533
-0.30338698733792246
-0.31405919484902195
-0.3234375807454094
-0.3313954025346305
-0.33781745179094735
-0.342601964287597
-0.3456625381947642
-0.3469300428829179
-0.34635449341959645
-0.34390685682644767
-0.33958074533095195
-0.33339393900362657
-0.32538966533644637
-0.3156375470682517
-0.30423411352193314
-0.2913027580800575
-0.2769930202095617
-0.26147908102365075
-0.24495739280798084
-0.2276434180509883
-0.20976752827134904
-0.19157019387824986
-0.17329666136810565
-0.15519133879738656
-0.13749207891731813
-0.1204244674802539
-0.10419612693942891
-0.08899099146717286
-0.0749635579114319
-0.0622332976436269
-0.0508796942456872
-0.04093865218690196
-0.03240116292664202
-0.025214996456319638
-0.019289770155104278
-0.014505114863751504
-0.010720996268361668
-0.00778877916559226
-0.005561506405325446
-0.003902137710873153
-0.002689048305537572
-0.0018187244630997858
-0.001206111131548083
-0.0007833411304662675
-0.0004975930461876725
-0.00030866396769465144
-0.00018661791950940612
-0.00010967573488332552
-6.239141222568804e-05
-3.410968245665969e-05
-1.769012881500199e-05
-8.485124325901636e-06
-3.556750006382305e-06
-1.111084297426199e-06
-1.170318777630206e-07
-4.874335309157408e-09
-2.198263910943797e-10
-1.1013030871700185e-07
-6.635448706318293e-07
-2.545014882794508e-06
-7.703945163974085e-06
-1.9931689906427627e-05
-4.591867263211242e-05
-9.656757050520078e-05
-0.00018848614170276278
-0.0003455316888061821
-0.0006002390083904149
-0.0009949438772041002
-0.0015824199758606079
-0.002425879247158876
-0.0035982399164345186
-0.005180634964105876
-0.0072602069255495285
-0.009927302574970707
-0.013272234966721837
-0.01738181482630801
-0.022335866011243787
-0.028203931432579
-0.03504234970419684
-0.042891843783990795
-0.05177571660625052
-0.06169870064562757
-0.07264646317318467
-0.08458573015372912
-0.09746496145480646
-0.11121548919153006
-0.12575301945634879
-0.14097939443243876
-0.1567845155262074
-0.17304833701891778
-0.1896428521659436
-0.20643400815257137
-0.22328350158165763
-0.24005042124220013
-0.25659271909772424
-0.2727685033067934
-0.28843715842584366
-0.30346030768835897
-0.31770264045216
-0.3310326346621383
-0.34332320960279
-0.35445234839704703
-0.36430373266372285
-0.37276743340081336
-0.3797407023256219
-0.38512890625692686
-0.38884664322199447
-0.39081907225220397
-0.3909834786585802
-0.38929108229715825
-0.38570907735255655
-0.3802228680712988
-0.37283843558114477
-0.3635847369157918
-0.35251600000071365
-0.3397137403825452
-0.32528829152391137
-0.3093796173983998
-0.2921571727518245
-0.27381860216012355
-0.2545871309317549
-0.23470759935697738
-0.21444121639041494
-0.19405923678724896
-0.1738358655998897
-0.15404073614734726
-0.13493127908971156
-0.11674521766992035
-0.09969333596256554
-0.08395263827709552
-0.06966009943132205
-0.056907398504655406
-0.04573726469749275
-0.0361422189160744
-0.02806643769723857
-0.021411126208967814
-0.016043204890430474
-0.011806445952616755
-0.008533659623544939
-0.006058315635059177
-0.004224171083863632
-0.00289199337696859
-0.0019431347696716372
-0.0012803189508154677
-0.0008263813401002973
-0.0005218111915850062
-0.0003218269990055357
-0.00019348648458699288
-0.00011309730940712823
-6.402183049548074e-05
-3.487501607716148e-05
-1.8080018580999908e-05
-8.740974116865907e-06
-3.7923754950067916e-06
-1.3565313967042397e-06
-5.839735787680493e-08
-7.143951226565382e-10
-2.5747376638442293e-07
-1.4477803627685154e-06
-5.265235685501622e-06
-1.5250119616922617e-05
-3.797793811884991e-05
-8.458037462926163e-05
-0.0001725161810881745
-0.0003274422045932231
-0.0005849804290638447
-0.0009921484290161522
-0.0016082255904461343
-0.0025048669294759477
-0.003765344839363662
-0.005482886005873527
-0.0077581627349446606
-0.01069608173171166
-0.014402078030799091
-0.01897816033706226
-0.024518964095720013
-0.031108052046603395
-0.038814664008328184
-0.04769106534013752
-0.05777058469839041
-0.06906637351937267
-0.08157086788478322
-0.09525589196951725
-0.11007331310679942
-0.12595614187397863
-0.14281996539097808
-0.16056460622247457
-0.17907591042446133
-0.19822758384802597
-0.21788301349756453
-0.23789702862500706
-0.25811757289668424
-0.2783872734564995
-0.2985449045328158
-0.3184267522660888
-0.33786789381066856
-0.35670340780890786
-0.37476953546975544
-0.3919048121620533
-0.4079511890939941
-0.42275516368355254
-0.4361689359469602
-0.4480516068730817
-0.4582704334436162
-0.46670215372795476
-0.4732343942344159
-0.4777671702109944
-0.48021448748584167
-0.4805060511895974
-0.47858908161861385
-0.47443022975095517
-0.4680175735965971
-0.4593626607330313
-0.44850254129081696
-0.43550170896350243
-0.4204538357680819
-0.40348315105457433
-0.3847452804271344
-0.3644273321459948
-0.3427470062703747
-0.31995051603655783
-0.29630916160843646
-0.2721144880605595
-0.24767208675411517
-0.22329424314581284
-0.19929176344416472
-0.17596539260755614
-0.15359724301593924
-0.13244258906342068
-0.11272228396543332
-0.09461598224507635
-0.07825636376656746
-0.06372467422485746
-0.05104808005272266
-0.040199478603066816
-0.031100380584908483
-0.02362720520255409
-0.017620811047475683
-0.01289845406871997
-0.009266820031073708
-0.006534518274051089
-0.004522548871116398
-0.003071729520213162
-0.0020467323699949755
-0.0013370237138907706
-0.0008554460057858418
-0.0005353534458117462
-0.00032713749786269743
-0.0001947555888124955
-0.00011261785003244181
-6.297493954611891e-05
-3.381744582519971e-05
-1.7235536756724568e-05
-8.162224782406548e-06
-3.3580509762278194e-06
-1.451220258932103e-07
-2.0146786304110267e-09
-5.683095469641921e-07
-3.0042247252953834e-06
-1.0404990341997022e-05
-2.8922153236423267e-05
-6.94832170415343e-05
-0.00014985188541769906
-0.00029685586246828364
-0.0005485357980307925
-0.0009559265879670087
-0.0015841831408183744
-0.0025128092686573884
-0.00383483378770933
-0.005654888272151293
-0.008086258428341458
-0.01124708797249857
-0.01525599571662145
-0.02022741425420495
-0.026266969361634616
-0.03346719587298499
-0.04190383551237833
-0.05163289456456269
-0.06268856446028609
-0.07508203547369473
-0.08880116985932943
-0.1038109504583817
-0.12005458612078938
-0.13745513610421875
-0.15591751020562303
-0.17533070705995304
-0.19557016670433136
-0.216500132113097
-0.2379759352946844
-0.2598461445944436
-0.28195452956846084
-0.30414181726195844
-0.326247228513487
-0.3481097949617836
-0.36956946696396975
-0.39046803000169117
-0.4106498527803458
-0.4299624945390582
-0.448257202463259
-0.4653893328325395
-0.48121873186081093
-0.49561011421629036
-0.5084334789696884
-0.5195646041338705
-0.5288856618459796
-0.5362859963118646
-0.5416631054745089
-0.544923864454184
-0.5459860234921019
-0.544780004663035
-0.5412510091908229
-0.5353614299846761
-0.5270935412857746
-0.5164524085721265
-0.5034689270249338
-0.4882028564798319
-0.4707456764326521
-0.451223039338199
-0.42979655908712233
-0.4066646415409953
-0.38206205518039865
-0.35625796364690265
-0.3295522086892657
-0.30226974710667626
-0.2747533038476549
-0.2473544864370473
-0.2204237804601292
-0.19429997230731144
-0.16929959141821682
-0.145706921207066
-0.12376502124434569
-0.10366808853077919
-0.08555542546586628
-0.06950731193041944
-0.05554317799478612
-0.04362256037684234
-0.03364928743348226
-0.02547908779698627
-0.01893035304236438
-0.013797207645759616
-0.009863530588217722
-0.006916318339314555
-0.004756887359031979
-0.0032088661421773553
-0.002122581629443748
-0.0013761019010464055
-0.0008736782952143112
-0.0005425431699370332
-0.0003289758713653647
-0.00019433637892617188
-0.00011149525702269928
-6.18491303059543e-05
-3.2944512389918535e-05
-1.6623599911876716e-05
-7.427614610015513e-06
-3.2016318887321415e-07
-5.125959368307272e-09
-1.190056378180335e-06
-5.94875340008867e-06
-1.9693490014121103e-05
-5.267147894627933e-05
-0.00012231503416615006
-0.0002558595187828563
-0.0004929359723139778
-0.0008877855593241047
-0.0015107359447877546
-0.002448632691194842
-0.0038040237678246555
-0.005693034061342079
-0.008242015670440422
-0.011583194898085512
-0.015849638872868034
-0.021169921809366853
-0.027662879773452678
-0.03543280791875075
-0.04456538565354999
-0.05512452625819754
-0.06715025169632009
-0.08065760267060736
-0.09563651727507677
-0.11205255423932589
-0.1298483006549728
-0.1489452882780528
-0.16924624405404456
-0.19063751531919318
-0.2129915337478472
-0.2361692103518069
-0.26002218315872117
-0.28439486691922206
-0.3091262785236142
-0.3340516317685052
-0.3590037103906767
-0.3838140390661833
-0.40831387887190496
-0.43233507722035
-0.45571080326663044
-0.47827619899100543
-0.4998689742522851
-0.5203299716598655
-0.5395037245922276
-0.557239029460623
-0.5733895516465356
-0.5878144836104784
-0.6003792735731804
-0.6109564439130348
-0.6194265199043306
-0.6256790914049388
-0.6296140321870146
-0.6311429031803462
-0.6301905661142171
-0.6266970317919379
-0.6206195611650737
-0.6119350259748642
-0.600642517449821
-0.5867661650373102
-0.5703580915563766
-0.5515013865583952
-0.5303129275563349
-0.5069458226080816
-0.481591193560826
-0.45447897611601396
-0.42587739268227603
-0.3960907704332528
-0.3654554428240879
-0.33433359540863905
-0.3031050926832275
-0.27215753317447194
-0.24187499080896185
-0.212626068300282
-0.18475197379348018
-0.1585553174810614
-0.13429022599035947
-0.1121542369358133
-0.0922823252443305
-0.07474336929924703
-0.05953938329398883
-0.04660786073166454
-0.03582749823350467
-0.027027321236146817
-0.019998805912169088
-0.014510071653898508
-0.010320765608717147
-0.00719604424923696
-0.00491817929041213
-0.0032947624953188915
-0.00216312829360355
-0.0013912663552519671
-0.0008759855185677039
-0.0005393200630466699
-0.00032414164970823736
-0.0001897336662728173
-0.00010780611321023863
-5.916433403881761e-05
-3.100888623088842e-05
-1.44534932808772e-05
-6.214455873034869e-07
-1.2014485831697584e-08
-2.3736822677839772e-06
-1.1273513158883542e-05
-3.578453731030055e-05
-9.229871381315164e-05
-0.00020754854564053438
-0.00042169985787904107
-0.00079108363259051
-0.0013901186855353838
-0.0023120330901412215
-0.0036681180556971545
-0.005585420301710502
-0.008202966605241115
-0.01166678530685721
-0.016124118292409166
-0.02171728768800526
-0.028577690189456134
-0.03682034499484285
-0.04653933258811193
-0.05780434874490414
-0.07065847887713181
-0.08511718735757591
-0.10116842562428453
-0.11877369763887123
-0.13786988311396967
-0.15837160569374475
-0.18017394045338178
-0.20315527700744512
-0.22718018538520657
-0.2521021664661134
-0.27776620305451216
-0.30401105872394396
-0.330671297683086
-0.3575790194290894
-0.384565316954634
-0.41146147737509337
-0.4380999499398028
-0.4643151094818782
-0.4899438444015759
-0.51482599810231
-0.538804692073402
-0.5617265580304303
-0.5834419060090507
-0.6038048552481363
-0.6226734551689388
-0.6399098247527767
-0.6553803400754757
-0.6689559015645117
-0.6805123145591687
-0.6899308187881832
-0.697098804188533
-0.7019107517446115
-0.704269438280459
-0.7040874427802783
-0.701288988037521
-0.695812144213216
-0.687611408980559
-0.6766606609557558
-0.6629564576609003
-0.6465216151470877
-0.6274089629980213
-0.6057051161233791
-0.5815340455009886
-0.5550601680043422
-0.5264906176284418
-0.49607631694518184
-0.46411145156787054
-0.4309309764859763
-0.3969058647346271
-0.3624359534281336
-0.3279404456418413
-0.2938463689103914
-0.26057553571952013
-0.22853075159704372
-0.1980821286767239
-0.16955436330305126
-0.14321573458405326
-0.11926941920548828
-0.0978475553738867
-0.07900837205296755
-0.06273663467777349
-0.04894760074238209
-0.03749455206858751
-0.02817971111958142
-0.020767951260948644
-0.015002252326680171
-0.010619473788884757
-0.0073648662645147255
-0.005003905629754129
-0.003330495092988515
-0.0021712184768500112
-0.0013859666720090322
-0.0008657366745692265
-0.0005286275746890929
-0.0003150303237548012
-0.00018279887237994052
-0.00010288991139049738
-5.559028260803506e-05
-2.6729000823862227e-05
-1.1452133337161802e-06
-2.6280703744639045e-08
-4.525132457194062e-06
-2.050057786365267e-05
-6.25612899392517e-05
-0.00015592690311769803
-0.00034005784632141627
-0.0006719990052391632
-0.0012288705405650842
-0.002109005993194372
-0.003431384637185015
-0.005333216636321162
-0.007965775139969742
-0.011488786557428457
-0.016063854038580214
-0.02184747851977002
-0.02898425115002745
-0.037600729167240055
-0.047800392979958105
-0.059659938750237514
-0.07322701147540055
-0.08851934789765203
-0.1055251900017699
-0.12420475527143329
-0.1444925101805134
-0.1662999849501598
-0.18951888390333696
-0.21402427908073718
-0.2396777175551243
-0.26633011854750627
-0.293824379998278
-0.3219976523428096
-0.35068326809504696
-0.3797123389323479
-0.4089150476990152
-0.4381216720833124
-0.46716338093684406
-0.4958728446194798
-0.5240846985972083
-0.5516358958431175
-0.5783659792253959
-0.6041173006290983
-0.6287352094807097
-0.6520682299059948
-0.6739682431223384
-0.6942906899440474
-0.7128948075177782
-0.7296439146370959
-0.7444057612283072
-0.7570529598536351
-0.7674635203073815
-0.7755215124845891
-0.7811178874685761
-0.7841514918368025
-0.7845303149182917
-0.7821730122541148
-0.7770107495791212
-0.7689894086648401
-0.7580721874269587
-0.7442426096913489
-0.7275079328392118
-0.7079029024994294
-0.6854937516692796
-0.6603822777354212
-0.6327097576038936
-0.6026603841545843
-0.5704638355524517
-0.5363965352145987
-0.5007811401101182
-0.46398382542623606
-0.4264090290941339
-0.388491487564491
-0.35068562888219706
-0.31345266753546963
-0.27724602739021226
-0.24249595323967052
-0.2095943100030329
-0.1788805831060424
-0.15062998854741205
-0.12504441484628037
-0.1022467085218099
-0.08227862894866643
-0.06510265206655379
-0.05060766606878631
-0.038618418308451356
-0.028908293169371296
-0.021214627439708016
-0.015255373886453085
-0.010745628127629369
-0.0074124632149733085
-0.005006737999290641
-0.0033110319221892515
-0.0021434922622909068
-0.0013579957159292537
-0.0008414763001185224
-0.000509473976624539
-0.00030091214517290844
-0.00017286382874689217
-9.55946100448223e-05
-4.69900494208269e-05
-2.0058948613512807e-06
-5.413109679889276e-08
-8.269459990026754e-06
-3.585614415655881e-05
-0.00010544360706362683
-0.00025440329989114045
-0.0005388710766121997
-0.0010369461839271601
-0.0018504038473809124
-0.0031044508768920632
-0.0049453093009462976
-0.007535706818603628
-0.011048628379513495
-0.015659893306420394
-0.021540238010996124
-0.028847597681045604
-0.037720202578381025
-0.048270960423609476
-0.06058341665090984
-0.07470939951757746
-0.09066829208248317
-0.10844774458857918
-0.12800555658003374
-0.14927241811162628
-0.1721551978471922
-0.19654049348821107
-0.22229820644839304
-0.2492849581893936
-0.2773472220465548
-0.3063240958253014
-0.3360496833546861
-0.36635508598395766
-0.39707002771471156
-0.42802415135986066
-0.4590480294961816
-0.4899739349286219
-0.5206364127446717
-0.5508726913959835
-0.5805229648614472
-0.6094305727304103
-0.6374421005814992
-0.6644074196343206
-0.6901796824225813
-0.7146152901371784
-0.7375738471889739
-0.7589181192758149
-0.7785140126369917
-0.7962305940932217
-0.8119401737921254
-0.8255184752399525
-0.8368449201672521
-0.8458030590306264
-0.852281181456233
-0.8561731445732308
-0.8573794607167986
-0.8558086889274777
-0.8513791762504452
-0.8440211938644804
-0.8336795079217506
-0.820316413602902
-0.8039152409213336
-0.7844843098250227
-0.7620612680930684
-0.7367176873334136
-0.708563720723215
-0.6777525442549782
-0.6444842178395895
-0.609008524357928
-0.5716262883766822
-0.5326886596020397
-0.4925938878634097
-0.45178123185034685
-0.41072183952448843
-0.36990670599591835
-0.32983212794698763
-0.2909833876930951
-0.2538176595033209
-0.2187472843081699
-0.18612457533289273
-0.15622919852321007
-0.12925895386113712
-0.10532452262190574
-0.0844484920411375
-0.06656874447150779
-0.05154608667402209
-0.039175756230953714
-0.029202144444716815
-0.021335728981977782
-0.015270881907363289
-0.010703015442821612
-0.007343548900672402
-0.004931470080619588
-0.003240782226016971
-0.0020837554875902673
-0.001310486652160963
-0.0008056791744890412
-0.00048371124589304595
-0.00028293011311780557
-0.0001595619626511407
-7.982041108502929e-05
-3.3934963294100697e-06
-1.0567921970298373e-07
-1.4524104143520613e-05
-6.044672005174644e-05
-0.0001716479047639395
-0.0004015331396408002
-0.0008271468178439801
-0.0015516535922139336
-0.0027046122320096354
-0.00443971729309386
-0.006930047436005644
-0.010361209025968236
-0.01492303558497722
-0.02080065711319617
-0.028165776078200987
-0.03716889272377956
-0.04793304325258774
-0.060549390806430216
-0.07507478064954609
-0.09153116962291583
-0.10990668663207481
-0.13015798465425593
-0.15221350427375424
-0.1759772755385522
-0.20133292641299885
-0.22814762865162438
-0.25627578307217913
-0.2855623160215849
-0.31584552045106595
-0.3469594246099248
-0.37873570764583153
-0.4110052049660688
-0.44359905886744494
-0.4763495740641725
-0.5090908358218471
-0.5416591427155735
-0.573893298448024
-0.6056347991004984
-0.6367279446049139
-0.6670198966838257
-0.6963607002683665
-0.7246032815129935
-0.7516034328883933
-0.7772197942903738
-0.8013138384788744
-0.823749869304063
-0.8443950419764481
-0.8631194160389081
-0.879796053699647
-0.8943011788320453
-0.9065144153174267
-0.9163191275827918
-0.9236028912199492
-0.9282581274371644
-0.9301829416153661
-0.9292822130172439
-0.92546898900941
-0.9186662418718088
-0.908809047760791
-0.8958472435150868
-0.8797486051254498
-0.8605025689091348
-0.8381244798653187
-0.8126602990533671
-0.7841916321839444
-0.7528408562420859
-0.7187760243914069
-0.6822151302497496
-0.6434292240700901
-0.6027438129297048
-0.560537965149439
-0.5172405961434251
-0.47332355420056205
-0.4292913549573267
-0.38566772050883874
-0.34297943116998364
-0.3017383445583361
-0.2624227181070684
-0.22545913281611557
-0.19120632559262543
-0.15994209643243731
-0.1318542006140108
-0.10703582093961042
-0.08548589375414781
-0.06711426321127635
-0.0517513569299762
-0.039161788910932624
-0.02906098627541189
-0.02113362391283798
-0.015052398306470793
-0.010495567151825478
-0.007161799646802217
-0.004781243444467219
-0.0031222627628914004
-0.0019939191690320386
-0.001244808142913708
-0.0007592010668590216
-0.0004514484564905436
-0.0002589597877698386
-0.000131390483716755
-5.562002076493481e-06
-1.9655157303819625e-07
-2.457380474893014e-05
-9.840845205376928e-05
-0.0002703333785607431
-0.0006140314348192116
-0.0012316125613420015
-0.0022546550673477783
-0.003842326857896795
-0.006176547024138812
-0.009454591390603203
-0.013879899845625928
-0.019652050999133704
-0.02695691125846234
-0.03595785640786332
-0.04678874497554317
-0.05954904660658019
-0.07430124699371665
-0.09107040513477281
-0.10984555520149233
-0.13058253475526022
-0.1532077806652667
-0.1776226517886343
-0.20370789633872644
-0.2313279640833337
-0.26033495324554146
-0.2905720670337557
-0.3218765271213352
-0.35408194711668106
-0.3870202073277214
-0.42052289442998037
-0.4544223788375182
-0.488552602040194
-0.5227496392531608
-0.5568520923468993
-0.5907013564963973
-0.6241417929527201
-0.6570208308326002
-0.6891890133641093
-0.7204999987538995
-0.7508105226226205
-0.7799803274992428
-0.8078720648070208
-0.8343511757371278
-0.8592857590459899
-0.8825464358432857
-0.9040062236486226
-0.9235404342566275
-0.9410266122173945
-0.9563445330474649
-0.9693762827455171
-0.980006442965918
-0.9881224095059234
-0.993614875787317
-0.9963785178930933
-0.996312923436501
-0.9933238128160906
-0.9873246075807
-0.9782384055061418
-0.9660004237510116
-0.9505609676081564
-0.9318889697719808
-0.9099761201724076
-0.8848415658063961
-0.8565371008963929
-0.8251526890800258
-0.790822062948742
-0.7537280378142833
-0.7141070666733483
-0.6722524677854714
-0.6285156955209751
-0.5833050221845234
-0.5370810751449314
-0.49034884483854413