# vtk DataFile Version 4.1 
COMMENT
ASCII
DATASET STRUCTURED_POINTS 
DIMENSIONS 100 100 1 
ORIGIN 0 0 0
SPACING 0.12693303650867893 0.12693303650867893 0 
POINT_DATA 10000
SCALARS U double 1
LOOKUP_TABLE default
0.0
0.0
0.0
0.0
0.0
0.0
0.0
0.0
0.0
0.0
0.0
0.0
0.0
0.0
0.0
0.0
0.0
0.0
0.0
0.0
0.0
0.0
0.0
0.0
0.0
0.0
0.0
0.0
0.0
0.0
0.0
0.0
0.0
0.0
0.0
0.0
0.0
0.0
0.0
0.0
0.0
0.0
0.0
0.0
0.0
0.0
0.0
0.0
0.0
0.0
0.0
0.0
0.0
0.0
0.0
0.0
0.0
0.0
0.0
0.0
0.0
0.0
0.0
0.0
0.0
0.0
0.0
0.0
0.0
0.0
0.0
0.0
0.0
0.0
0.0
0.0
0.0
0.0
0.0
0.0
0.0
0.0
0.0
0.0
0.0
0.0
0.0
0.0
0.0
0.0
0.0
0.0
0.0
0.0
0.0
0.0
0.0
0.0
0.0
0.0
-4.165469239462838e-14
2.0431016660709744e-11
2.1510854265799684e-10
1.1677116001579867e-09
4.5484656311277916e-09
1.4308968365425937e-08
3.854406674553534e-08
9.197777238479553e-08
1.9872042431139295e-07
3.9450786554117627e-07
7.271259813743469e-07
1.2532421589410214e-06
2.029531265823644e-06
3.0959202227187064e-06
4.4490762438307324e-06
6.004969559039506e-06
7.550423081279696e-06
8.68491999480767e-06
8.75541956352406e-06
6.788343066559035e-06
1.4240451055658554e-06
-9.140181892529591e-06
-2.7192320626915358e-05
-5.5527183304206204e-05
-9.744235395559208e-05
-0.00015670494947263747
-0.00023748734262624436
-0.00034427187169712355
-0.00048172644769520304
-0.0006545547119357468
-0.0008673258731796139
-0.0011242904813194292
-0.001429189130813954
-0.0017850614271686428
-0.0021940625215530487
-0.0026572941740656674
-0.0031746567120136595
-0.003744727478569615
-0.004364670490011443
-0.005030181098905592
-0.005735468545831266
-0.006473278407995354
-0.00723495613737037
-0.008010552125645191
-0.008788968025266698
-0.009558143369364247
-0.010305280832647137
-0.011017107718282838
-0.011680170397913754
-0.012281157431664488
-0.01280724591884884
-0.013246464259077592
-0.013588062939098422
-0.013822883230774591
-0.013943711849377208
-0.013945607774222699
-0.013826185712595317
-0.013585839279427466
-0.013227886117671008
-0.012758617222462134
-0.012187234066539272
-0.011525660237087827
-0.010788219675876214
-0.009991181626790982
-0.009152183053227335
-0.008289552003081103
-0.007421568772193938
-0.006565713526546961
-0.005737956556693004
-0.0049521479836232875
-0.004219556003817335
-0.0035485870149956143
-0.002944699753323646
-0.0024105031607556957
-0.0019460088194868165
-0.0015489970485420327
-0.0012154523966061985
-0.0009400278777492001
-0.0007165046953856741
-0.0005382220200424203
-0.00039845759168749626
-0.0002907444231370635
-0.0002091130283066013
-0.00014825388189874166
-0.00010360168605410055
-7.135047353811347e-05
-4.8414717154270784e-05
-3.23547292517089e-05
-2.1284110908252307e-05
-1.3773564296830592e-05
-8.760575915682955e-06
-5.469910856344983e-06
-3.346523403471242e-06
-2.0005930210966426e-06
-1.1635860764376537e-06
-6.540060270762846e-07
-3.5142604062567534e-07
-1.7716101502668282e-07
-7.831344222165207e-08
-3.4165753828185885e-09
-8.972996181440925e-14
7.4660070732131e-11
6.486209642731235e-10
3.148935306624954e-09
1.1313769317854201e-08
3.338242726315568e-08
8.525998396375626e-08
1.9445440103580226e-07
4.041555731095934e-07
7.763277574871202e-07
1.3922283542511583e-06
2.3484775282271076e-06
3.746804549231968e-06
5.6759640987246015e-06
8.18505709671741e-06
1.1248536782215964e-05
1.4724395029061132e-05
1.8308226510291516e-05
2.1486870868354404e-05
2.3495973424779728e-05
2.32859760357497e-05
1.9500715827486827e-05
1.0472008971296092e-05
-5.767569159945619e-06
-3.145288267032037e-05
-6.903603242271032e-05
-0.00012111971776173456
-0.00019037724611577434
-0.0002794630729626705
-0.0003909181906994947
-0.0005270747578799463
-0.0006899641073612191
-0.0008812317575617412
-0.0011020623552453518
-0.0013531166854624434
-0.0016344820741566247
-0.0019456367496488984
-0.002285428073418818
-0.0026520640340308055
-0.0030431170399877997
-0.0034555388524928877
-0.003885685460435801
-0.004329350801193054
-0.00478180844929189
-0.005237860703323348
-0.005691894869102751
-0.006137946930739691
-0.006569773185339189
-0.006980930753512863
-0.007364868126774794
-0.007715027033391112
-0.008024956856597282
-0.00828844258730768
-0.008499646807746527
-0.008653265459947221
-0.008744696134862406
-0.008770216301509278
-0.008727167245762888
-0.008614137452756347
-0.00843113669166046
-0.008179749144069966
-0.007863250704507092
-0.007486672504997397
-0.007056790610166365
-0.006582021947741473
-0.006072210355908252
-0.005538295367436231
-0.004991870292774582
-0.004444653966008956
-0.00390791889998472
-0.0033919327831657808
-0.002905475281703245
-0.0024554847428221198
-0.002046869839902614
-0.0016824937688294218
-0.0013633106672141944
-0.0010886133132165753
-0.000856343058151905
-0.0006634177806741496
-0.0005060470845326157
-0.00038001913024733006
-0.00028095432141694935
-0.0002045249478335842
-0.0001466383106125169
-0.00010357785181296512
-7.209628393529709e-05
-4.945826544222928e-05
-3.343657641951554e-05
-2.227211968073228e-05
-1.4611714945310776e-05
-9.437478555831633e-06
-5.998345563704147e-06
-3.7498141650156838e-06
-2.3040351600639094e-06
-1.3898712083793416e-06
-8.215141853332817e-07
-4.74073969649323e-07
-2.6429078055090617e-07
-1.3194650271122326e-07
-5.820521415444393e-09
-1.0028724608980318e-13
2.5706546370208774e-10
1.978515285774197e-09
8.916145706559882e-09
3.03484056124387e-08
8.582252730878241e-08
2.1169100943351707e-07
4.6886484638614615e-07
9.503907646383009e-07
1.7865788382055479e-06
3.1446590700565734e-06
5.2195452238808025e-06
8.212408491103987e-06
1.2294505275332987e-05
1.7555042545408884e-05
2.3933665613377572e-05
3.1140189308015285e-05
3.856618645728223e-05
4.5194719347741375e-05
4.9515619387594e-05
4.945413842485353e-05
4.232046210726318e-05
2.478653945831096e-05
-7.104926827159242e-06
-5.789648345024134e-05
-0.00013263625580011584
-0.00023676409146565882
-0.00037596696180571595
-0.0005560086898507148
-0.000782540284089345
-0.0010608979238251276
-0.0013958959742053142
-0.0017916223527909938
-0.002251243192110367
-0.00277682312291679
-0.0033691667216998703
-0.004027685798750858
-0.004750296314568314
-0.005533347853864167
-0.0063715877944083635
-0.007258161604334432
-0.008184650094599306
-0.009141143939165123
-0.010116355339700565
-0.011097766330714947
-0.012071812863947934
-0.013024103440084367
-0.013939670628946957
-0.014803253290327488
-0.015599606629740869
-0.016313836352937965
-0.016931752085794054
-0.017440233886884732
-0.01782760411472987
-0.018083995181996625
-0.0182017019545103
-0.018175505915005757
-0.018002956939641507
-0.01768459786860946
-0.017224117175849252
-0.016628416013254158
-0.015907577597955896
-0.015074729044225282
-0.014145788008044866
-0.013139088834122225
-0.012074885706207265
-0.010974734696809312
-0.009860764148553743
-0.00875485484116724
-0.007677767988552388
-0.006648278079316765
-0.005682384122190237
-0.004792680482949126
-0.0039879612286280956
-0.003273107163976985
-0.0026492656032355917
-0.002114288171802421
-0.0016633536073648618
-0.0012896814251376705
-0.0009852435608740445
-0.000741402014170014
-0.0005494318928329413
-0.00040091966025066286
-0.00028804708289948674
-0.00020377952286288996
-0.00014197580518439235
-9.743188445607137e-05
-6.586720314133157e-05
-4.386308535892731e-05
-2.8765547252612702e-05
-1.8567711810406824e-05
-1.1787283245263845e-05
-7.351718407043787e-06
-4.498960110083617e-06
-2.6966769311454777e-06
-1.579284948831131e-06
-8.999909996284355e-07
-4.93743096245955e-07
-2.422077348137361e-07
-1.0643664607485485e-08
3.328355119290615e-13
8.041804391188421e-10
5.58367390962142e-09
2.3477118896178345e-08
7.576967626797191e-08
2.0513786348201042e-07
4.87633889080564e-07
1.0459911010476207e-06
2.061561888110095e-06
3.7810454834396734e-06
6.5134520744290594e-06
1.0612762716130264e-05
1.644263882169821e-05
2.432129329324215e-05
3.444705891617396e-05
4.680793418406457e-05
6.108103093920582e-05
7.652997649282573e-05
9.190960241826769e-05
0.00010538748837976854
0.00011449109040843672
0.00011608739291935261
0.00010639952896331549
8.106193348108812e-05
3.521266864130451e-05
-3.638110201418154e-05
-0.00013917066994992866
-0.00027865404194177886
-0.0004601933466163244
-0.0006888298946428062
-0.0009691048499863426
-0.001304892438537974
-0.0016992512649406453
-0.0021542977875525986
-0.002671104460647402
-0.0032496236132246972
-0.003888636886357688
-0.004585729055907685
-0.0053372843558662205
-0.0061385029961443715
-0.006983435424707624
-0.007865031991173112
-0.008775205992012482
-0.009704908575784642
-0.010644214616974058
-0.011582419383793247
-0.012508146581256662
-0.013409469094720003
-0.014274044433508002
-0.01508926741286643
-0.015842442937449627
-0.016520981770524107
-0.01711262178905176
-0.017605676331299596
-0.017989309747170154
-0.018253838103455967
-0.018391050185016532
-0.01839454057861749
-0.01826004296647991
-0.01798574815510699
-0.01757258826501448
-0.017024466334561842
-0.016348409628077903
-0.015554625223546305
-0.01465643779456297
-0.013670091658058776
-0.012614402209009232
-0.011510246570703356
-0.010379891227118267
-0.00924616751816279
-0.008131525386054205
-0.00705702066860006
-0.006041317203003259
-0.005099804472162873
-0.004243935685469405
-0.0034808734970252137
-0.0028134904552036336
-0.002240716081207583
-0.0017581660770861198
-0.0013589473451626507
-0.0010345167818408567
-0.0007754847236468564
-0.0005722881681672446
-0.00041570086428778584
-0.0002971832713268227
-0.00020909676858086595
-0.00014481252899929675
-9.874133789687385e-05
-6.630349805962693e-05
-4.385303449801984e-05
-2.856916292273379e-05
-1.8328815179773413e-05
-1.1574347321733104e-05
-7.188768521852472e-06
-4.386980846387234e-06
-2.626839599787542e-06
-1.5395572108810752e-06
-8.747318980026322e-07
-4.4509402679097373e-07
-1.949925285690302e-08
2.813340800301266e-12
2.3260047507818783e-09
1.4809454838299562e-08
5.856549925422427e-08
1.8012068934076274e-07
4.68532834117662e-07
1.0762197679566847e-06
2.2404216497146034e-06
4.300354573078868e-06
7.703718852433126e-06
1.2995756161362419e-05
2.0784803893944227e-05
3.168032686548602e-05
4.620250085583765e-05
6.4666137586417e-05
8.704550182414881e-05
0.00011282979008463418
0.00014088122835804928
0.0001693085976803735
0.0001953684267270413
0.00021540422901836445
0.00022483130651696366
0.00021817119034544565
0.0001891361700631387
0.00013076096554314598
3.5575726153600274e-05
-0.00010418760235060425
-0.0002963648384747258
-0.0005486148926048964
-0.0008681705482895816
-0.0012615936780245318
-0.0017345427811097892
-0.002291559414726499
-0.0029358786957577607
-0.003669267697437594
-0.004491894336376077
-0.00540222829464146
-0.006396974673154564
-0.00747104042916923
-0.008617533198517456
-0.00982779181876616
-0.011091447723175149
-0.01239651633614339
-0.013729517637781958
-0.01507562514881094
-0.016418842689026974
-0.01774220835570133
-0.0190280252244807
-0.020258118264566076
-0.021414116848207643
-0.02247776198253064
-0.023431236953472687
-0.024257519394439764
-0.024940751818255006
-0.025466626321977593
-0.02582277744259395
-0.025999174989147222
-0.025988506143150642
-0.02578653333733615
-0.025392411653228524
-0.02480894712030842
-0.02404277585775611
-0.02310444397993051
-0.022008369929606805
-0.020772674402265455
-0.019418867830760758
-0.01797139073005072
-0.016457007325089503
-0.01490405769729207
-0.013341579194548103
-0.011798316156398606
-0.01030165044234944
-0.00887650474109348
-0.007544293906956444
-0.006322020298950814
-0.005221618048810649
-0.004249639515542152
-0.0034073409032339716
-0.002691167440829617
-0.0020935745385643515
-0.0016040675959912067
-0.001210315384416787
-0.0008991975113686395
-0.0006576813112135446
-0.00047347410944509355
-0.00033544636397323695
-0.00023385650444946007
-0.0001604242118988139
-0.00010829837505279812
-7.19566209325069e-05
-4.706272739566573e-05
-3.030073428289155e-05
-1.9200692242481086e-05
-1.1968906633790076e-05
-7.333204653876682e-06
-4.410230917125748e-06
-2.597098599243612e-06
-1.4829060256434267e-06
-7.574559583160868e-07
-3.3110099508126276e-08
1.2532687557535783e-11
6.276001175597483e-09
3.70596377204887e-08
1.3863486944295982e-07
4.0771379539992474e-07
1.0212256641683505e-06
2.2700602861435304e-06
4.590757799081858e-06
8.586761683787432e-06
1.502965485238198e-05
2.4831301277134974e-05
3.8980198023220755e-05
5.843937497817135e-05
8.400826782128765e-05
0.00011615630849741657
0.0001548406501387687
0.00019932372033220076
0.0002480076898060358
0.000298302293927804
0.000346539917184441
0.00038794787179477974
0.000416682956372393
0.0004259283032033576
0.00040804779602173646
0.0003547894225266635
0.00025752611135571426
0.00010752101392308322
-0.00010379620418042076
-0.00038455485001823544
-0.0007421817921463079
-0.0011831624559386553
-0.0017128312154009472
-0.002335195794421403
-0.0030527980396494805
-0.0038666114408459212
-0.0047759741403937935
-0.005778554934699335
-0.006870348933154894
-0.008045699085165265
-0.009297339674915915
-0.010616458069980773
-0.011992771443046247
-0.013414615816363459
-0.014869045559693457
-0.016341942362059225
-0.017818133656253878
-0.019281521464482938
-0.020715223613409568
-0.022101730191012154
-0.023423078929764213
-0.024661053830163468
-0.02579741169731613
-0.026814141243271524
-0.027693758882523706
-0.028419644177450548
-0.02897641593246696
-0.029350347067139192
-0.029529812547625895
-0.029505759848338965
-0.02927218583276418
-0.02882659797960303
-0.02817043218619932
-0.02730939483959347
-0.026253694466252846
-0.025018128970263166
-0.023621998771187883
-0.02208882392108851
-0.020445853638991884
-0.01872336829063775
-0.016953785428665585
-0.015170592730908079
-0.01340714246794651
-0.011695356352459248
-0.010064407677976303
-0.008539468554873558
-0.0071406289604559825
-0.0058821028479307865
-0.0047718254661772135
-0.0038115097114566018
-0.0029971700091072054
-0.0023200515192474272
-0.0017678385700358981
-0.001325977448853026
-0.0009789460597258491
-0.0007113355949418273
-0.0005086649654418929
-0.00035790900752029787
-0.00024776973679755234
-0.00016874697390153673
-0.00011307059473454164
-7.454825727587808e-05
-4.836852730029422e-05
-3.088653359603915e-05
-1.941038515833218e-05
-1.2001081282134219e-05
-7.29461361310543e-06
-4.3502866960146805e-06
-2.5201355090012e-06
-1.3043440723877104e-06
-5.6813110487886924e-08
4.416301297890921e-11
1.5907894322556167e-08
8.787817141642362e-08
3.1245385440951716e-07
8.813499659331607e-07
2.130176715542002e-06
4.589251004364389e-06
9.025779769697648e-06
1.6464225497800463e-05
2.8171486787620428e-05
4.559604055544279e-05
7.02552074199236e-05
0.00010357145931797051
0.00014666604427307885
0.00020012489403056994
0.0002637566956522866
0.00033636540212461473
0.00041555905730532826
0.0004976138173711887
0.0005774070440955391
0.0006484271349432546
0.0007028612168098415
0.0007317557595898257
0.0007252401735843318
0.0006727999146151139
0.0005635836641028685
0.000386728700472737
0.00013168940147472642
-0.0002114444072511016
-0.0006516501652661221
-0.0011967046149822492
-0.0018529507943473645
-0.0026251032063240635
-0.003516092339086261
-0.004526948092952744
-0.0056567204950187305
-0.00690243532189438
-0.008259081850274502
-0.009719629846571272
-0.01127507302036383
-0.012914496436781794
-0.014625165754587142
-0.016392636585863013
-0.01820088272809477
-0.020032442479136773
-0.021868582697979554
-0.02368948071324448
-0.025474424603565103
-0.027202032775086663
-0.02885049413160604
-0.030397830452765156
-0.03182218283035894
-0.03310212410687037
-0.03421699913304969
-0.0351472942034422
-0.03587503610266909
-0.03638421964144011
-0.03666126021427088
-0.036695464629512245
-0.03647950917818431
-0.036009908693575385
-0.03528745450191949
-0.03431759326176599
-0.03311071363979828
-0.031682304725174075
-0.030052950237213202
-0.028248126838727936
-0.026297783477955958
-0.024235690998974234
-0.022098565831633464
-0.01992498665691784
-0.017754137320620724
-0.01562442291766363
-0.013572020078850416
-0.011629438429580731
-0.009824187668611267
-0.008177660081543981
-0.006704344273562801
-0.005411473660554615
-0.0042991766188710595
-0.003361135111067666
-0.002585685403117856
-0.001957225961063879
-0.0014577530466429265
-0.0010683370836629851
-0.0007703839947191823
-0.0005465844946326577
-0.0003815221341741235
-0.00026196895131676897
-0.00017693380512906405
-0.00011754036919921378
-7.680495374977344e-05
-4.936805709622243e-05
-3.1216105110852335e-05
-1.9415877537130557e-05
-1.1874386467992603e-05
-7.129057507502978e-06
-4.159557899726555e-06
-2.1653595792795836e-06
-9.40249256865122e-08
1.3510853906411818e-10
3.808759854654806e-08
1.981714467140619e-07
6.723316749640141e-07
1.8236817919772847e-06
4.26099221783467e-06
8.909004337243215e-06
1.7056938220125306e-05
3.036616849821924e-05
5.082037486018103e-05
8.060755597428073e-05
0.00012193219994211703
0.00017676605905848217
0.0002465555560045431
0.0003319111894601928
0.000432308243695934
0.0005458281544401218
0.0006689662534478813
0.0007965250854356694
0.0009216041927199305
0.001035688431869938
0.0011288286517073193
0.0011899017905699352
0.0012069326722099322
0.0011674571795571955
0.0010589059544834913
0.0008689889863383798
0.0005860639665198013
0.0001994746168622208
-0.00030015110869449835
-0.0009206493782583727
-0.0016681184554222532
-0.0025467664813555407
-0.0035588069676637402
-0.004704398223601796
-0.005981621840084361
-0.00738649476421859
-0.008913009340094934
-0.010553195878898544
-0.012297202773896138
-0.014133389823914946
-0.01604843121583137
-0.018027425498550333
-0.020054010825740973
-0.022110484729109568
-0.02417792869137013
-0.02623633880434642
-0.028264764808161466
-0.030241460793020872
-0.0321440517776567
-0.033949721216740024
-0.035635425174170204
-0.03717813934840845
-0.03855514524238228
-0.039744361399112034
-0.040724724614989015
-0.04147662421749134
-0.04198238967193694
-0.04222682780370345
-0.04219780069012292
-0.04188682880765714
-0.04128969651936284
-0.04040702892629817
-0.039244801291453274
-0.03781473583930365
-0.03613453717839693
-0.03422791838165266
-0.032124376063053246
-0.029858685022001043
-0.027470100497748198
-0.025001276977146526
-0.022496934356981576
-0.020002322794480457
-0.017561555570010202
-0.015215894913095563
-0.01300208990704799
-0.010950878304747521
-0.009085772747205546
-0.007422250636394783
-0.005967448277747688
-0.004720418423900285
-0.0036729469260678425
-0.002810848580696373
-0.002115591656995707
-0.0015660542201994428
-0.0011402070127677424
-0.0008165497977413996
-0.0005751905664818723
-0.0003985311476213165
-0.00027158860781941835
-0.0001820254259438835
-0.00011997841909295555
-7.777131872091256e-05
-4.9578041702948446e-05
-3.1082358900537766e-05
-1.9160632176286172e-05
-1.1597839788893737e-05
-6.82318150142624e-06
-3.5748932045265976e-06
-1.5465721604639392e-07
3.729737745060423e-10
8.652902286312847e-08
4.263543118746469e-07
1.38480213917858e-06
3.6202219506991993e-06
8.190338349681839e-06
1.663976594250073e-05
3.104256451576976e-05
5.397500029157194e-05
8.840066216673222e-05
0.00013746152359274635
0.00020418233068997173
0.00029110922854675607
0.0003999143414342559
0.0005310042976077018
0.0006831716094354624
0.0008533235818026335
0.0010363150701671005
0.001224900518394084
0.0014098090183995323
0.0015799352389170608
0.0017226301802252195
0.0018240695457218657
0.0018696743058691924
0.0018445575740624561
0.0017339737319057042
0.001523749189221836
0.0012006785624006054
0.0007528747829310629
0.0001700662046861774
-0.0005561621918872457
-0.0014321831077110363
-0.0024621938801549378
-0.0036481315477584868
-0.004989630531090276
-0.006484017073272712
-0.008126334676296774
-0.009909395183922177
-0.011823850780939124
-0.013858282906084608
-0.01599930484021546
-0.018231675483848454
-0.020538422550798442
-0.022900974066338602
-0.025299297671375905
-0.02771204781066522
-0.030116721441533573
-0.03248982346142755
-0.034807043638677725
-0.03704344745710326
-0.03917368395704506
-0.04117221436161826
-0.043013565980724304
-0.04467261651568937
-0.0461249143301352
-0.047347040343626266
-0.04831701672743881
-0.049014766274381893
-0.04942262388802935
-0.04952589781091285
-0.04931347277122729
-0.04877844010214615
-0.04791873124768037
-0.04673772143338297
-0.045244760606079654
-0.04345558045709913
-0.04139252123747746
-0.03908452206881265
-0.0365668251512422
-0.033880358422533285
-0.031070782280902116
-0.028187211971349234
-0.025280655124663064
-0.022402230515661887
-0.01960125697587511
-0.016923319558195715
-0.014408433566575186
-0.012089435746583175
-0.00999073375622683
-0.008127535429402548
-0.00650565241110656
-0.0051219244783295296
-0.003965243041358815
-0.0030180748274077542
-0.002258316345929664
-0.0016612649950324858
-0.0012014869196108305
-0.0008543973297947481
-0.0005974358595161086
-0.00041079888423848704
-0.0002777620956731204
-0.0001846751310653099
-0.00012073029036324813
-7.760313103590517e-05
-4.904314995938813e-05
-3.0467164205051335e-05
-1.8580306173012994e-05
-1.1007664875880304e-05
-5.7948315855401475e-06
-2.4976861222705103e-07
9.484928084230333e-10
1.8724766154174663e-07
8.776385354292322e-07
2.736751535831157e-06
6.909162584075384e-06
1.5157807138403193e-05
2.9957172783434083e-05
5.450499445005232e-05
9.262404438540374e-05
0.00014853990912207558
0.0002265391153834274
0.00033053093116034723
0.00046355197971999494
0.0006272626797592358
0.0008214870600799931
0.0010438427861305761
0.0012894976398236094
0.0015510743842948468
0.0018187103690833026
0.0020802636342401952
0.002321645361294621
0.002527250300569395
0.0026804525802791228
0.0027641337885654753
0.002761212725834213
0.0026551508548255808
0.0024304133006587997
0.0020728714413156073
0.001570139025555398
0.0009118389116665153
8.980168812424669e-05
-0.0009017994639082549
-0.002066371230757854
-0.0034048723352878537
-0.004915827353086819
-0.006595374220471119
-0.008437337975949739
-0.010433324025635599
-0.012572825115350541
-0.014843337149675388
-0.017230479969624846
-0.01971812015649914
-0.022288493856666966
-0.02492232851876473
-0.0275989633062724
-0.030296468803551375
-0.032991767482224627
-0.03566075724638697
-0.03827844123593065
-0.04081906793874819
-0.04325628653839083
-0.045563323285659846
-0.04771318549476238
-0.04967890046642433
-0.051433797137779014
-0.052951838416076646
-0.05420801178561743
-0.05517878464945835
-0.055842628700432134
-0.05618061410858591
-0.05617706918138403
-0.05582029419889795
-0.055103309321896735
-0.054024606074384265
-0.05258886057582863
-0.05080755560379866
-0.04869944938989084
-0.04629082388850978
-0.043615446322858555
-0.040714186943952194
-0.037634253997973925
-0.03442803324535021
-0.03115155168103613
-0.027862619695688217
-0.024618738655220955
-0.021474888264746323
-0.018481328034054233
-0.015681558919094344
-0.013110594337066413
-0.010793682735304615
-0.008745603485396
-0.0069706200676976455
-0.005463117293776693
-0.004208875999056822
-0.003186859751569864
-0.002371320066949769
-0.0017339868478367549
-0.001246111222861669
-0.0008801698413741301
-0.0006111122261456489
-0.00041711692556233455
-0.0002798974109079874
-0.00018464984609621279
-0.0001197563223540364
-7.635224662715974e-05
-4.7843440355914984e-05
-2.9422086738758568e-05
-1.756433499871852e-05
-9.293044358899983e-06
-3.9894920359661684e-07
2.2509369375696277e-09
3.8725689162447534e-07
1.7330426046481207e-06
5.201089175395021e-06
1.2702549910969276e-05
2.7059903517021725e-05
5.207937150879972e-05
9.248955355432907e-05
0.00015372002755439508
0.00024151790566107962
0.00036142658877206336
0.0005181738753641801
0.0007150318731684987
0.0009532164762085376
0.0012313893349416745
0.0015453119945466637
0.0018876831845050387
0.0022481695504324006
0.002613620610635339
0.0029684428180031808
0.0032950967294569722
0.003574675838227696
0.0037875251821173975
0.003913861412028933
0.003934362321618092
0.003830701608534784
0.0035860127264294
0.0031852732246035694
0.0026156073880447732
0.0018665099954952786
0.0009299975493441795
-0.00019930449295480838
-0.0015241289307576253
-0.0030445787902702755
-0.004758174875830085
-0.006659930640171114
-0.008742447241918557
-0.010996022860503711
-0.013408771512159278
-0.015966747694283537
-0.01865407414876722
-0.021453070870428467
-0.02434438420319836
-0.02730711548343571
-0.03031894923257555
-0.03335628139993324
-0.0363943486426909
-0.03940736013657025
-0.042368633969711175
-0.04525074081381162
-0.04802565831520019
-0.050664940518387436
-0.053139907622396614
-0.055421862445114
-0.057482341063095264
-0.05929340608128964
-0.0608279916814817
-0.06206030973855599
-0.06296632554436822
-0.06352430964378387
-0.06371546854324121
-0.06352465120904172
-0.06294112006348546
-0.06195936458681914
-0.0605799229976127
-0.05881016368806455
-0.056664964624489556
-0.05416721789464562
-0.05134808055660074
-0.04824689456546022
-0.04491070997263754
-0.041393367766248974
-0.03775413082841485
-0.034055890700133845
-0.030363019696557324
-0.0267389772292096
-0.023243811298766806
-0.019931717803307557
-0.01684882995142571
-0.014031406935078405
-0.011504574091898343
-0.009281734208301253
-0.007364719494617265
-0.005744686474488774
-0.004403676885638365
-0.0033166882060004644
-0.0024540336715504676
-0.001783739600289566
-0.0012737373390024828
-0.0008936574458210427
-0.0006161127840952331
-0.00041744553985405763
-0.00027799046438659183
-0.0001819581924091988
-0.00011706263434325503
-7.40070591866629e-05
-4.590522947893787e-05
-2.761892583761506e-05
-1.4685843938636872e-05
-6.278604465507535e-07
5.029744255471701e-09
7.677079172583142e-07
3.2907241409735767e-06
9.525144947476266e-06
2.254025425361042e-05
4.6681897164657075e-05
8.757658803636112e-05
0.00015193413410788552
0.0002471350977711863
0.0003806252512092942
0.0005591720794112503
0.0007880618065275584
0.0010703254324721907
0.001406078120452923
0.0017920400726677093
0.0022212828061436846
0.002683217305657002
0.003163814403112429
0.003646026368873049
0.00411036412107749
0.00453557724002689
0.004899383504349516
0.005179199540945554
0.0053528326291862344
0.005399103941107181
0.00529838400156115
0.0050330307725707174
0.004587728788730455
0.003949733870386721
0.0031090321034782415
0.002058424197161392
0.0007935473296718395
-0.0006871534720328071
-0.0023824931581560124
-0.00428864363614148
-0.006399251256951144
-0.008705567593414449
-0.011196587657879047
-0.013859190941131945
-0.016678281744616694
-0.019636926229172298
-0.022716484435412538
-0.02589673626906842
-0.029156001115690527
-0.03247125137764823
-0.035818220833892786
-0.039171509328068954
-0.04250468590988719
-0.04579039320395091
-0.04900045647522684
-0.05210600161660219
-0.05507758711511049
-0.05788535596685708
-0.06049921450036048
-0.06288904610338591
-0.06502496885982958
-0.06687764696509178
-0.06841866630145585
-0.06962098443306651
-0.07045946414643878
-0.07091149706394165
-0.0709577193051607
-0.07058281421330301
-0.06977638749984291
-0.06853388778693001
-0.06685753090614018
-0.06475717053171363
-0.0622510426002135
-0.05936629901205094
-0.056139240321253704
-0.052615160517595086
-0.048847731949358875
-0.04489788584627833
-0.04083218261831255
-0.03672071265744728
-0.0326346173871883
-0.02864336554596076
-0.02481195537355859
-0.021198235266280317
-0.017850541265068028
-0.01480583855534068
-0.012088525625956989
-0.009710013555382048
-0.0076691295036809826
-0.00595331588314175
-0.004540512366382425
-0.0034015294351346535
-0.0025026651441243716
-0.0018082952084807502
-0.0012831875901181853
-0.0008943531509797726
-0.0006123299754861366
-0.00041189067069131134
-0.00027223941433808567
-0.0001768144328784619
-0.00011282446644831261
-7.061504967191475e-05
-4.2832313686413466e-05
-2.2892821662954937e-05
-9.744935579520032e-07
1.065279525503874e-08
1.462724103154396e-06
6.021773551017555e-06
1.6843048341274483e-05
3.867370317392362e-05
7.795558758407727e-05
0.00014268722890963534
0.00024200614450262247
0.00038550604140242834
0.0005823501685919953
0.000840277530947654
0.0011646163891442364
0.0015574175472019905
0.002016800735599079
0.002536576315690664
0.0031061682676046766
0.003710829401562421
0.004332110919535302
0.004948528778186854
0.005536359620184377
0.006070498501308814
0.006525317275190311
0.0068754738282265125
0.007096635920919122
0.007166097102033614
0.007063274499066075
0.006770088340973235
0.006271230468825812
0.00555433388823553
0.0046100579418549194
0.003432104402236915
0.002017179213158344
0.0003649132126150171
-0.001522246654792532
-0.0036391660884627316
-0.005978164491087857
-0.008529162389404127
-0.011279830734554283
-0.014215738813997684
-0.017320498487924982
-0.020575903245768377
-0.023962061202940154
-0.0274575216645165
-0.03103939530798563
-0.03468346841378528
-0.03836431192864753
-0.04205538650864151
-0.04572914508126619
-0.04935713491465637
-0.052910101714264766
-0.05635809891220739
-0.059670606100681874
-0.06281666151333794
-0.06576501459105222
-0.06848430597344875
-0.07094328369069154
-0.07311106579293022
-0.07495746097363899
-0.07645335964971134
-0.07757120807948213
-0.07828557694652849
-0.07857383284518503
-0.07841691567935082
-0.07780021660634448
-0.07671453951216696
-0.07515711417560247
-0.07313261193596812
-0.07065409625163181
-0.06774382329691524
-0.06443379473662282
-0.06076595954562459
-0.05679196759957114
-0.052572397237390885
-0.048175412799713595
-0.04367485454984678
-0.03914781803220181
-0.03467183635060289
-0.030321829638536444
-0.02616702425316315
-0.022268064835923935
-0.018674542538717743
-0.015423141643839983
-0.012536565075307399
-0.010023338434336452
-0.007878515182853513
-0.006085218203285093
-0.004616864894919994
-0.0034398476797195677
-0.00251639400720095
-0.0018073213110193253
-0.0012744368665813244
-0.0008824038812105252
-0.0005999878733161749
-0.0004006909260224508
-0.0002628556739179296
-0.00016935861601596197
-0.00010698875683494334
-6.543758523075545e-05
-3.515636589932478e-05
-1.4897834262847252e-06
2.149677213889096e-08
2.6850228626590495e-06
1.064150229043878e-05
2.8810238535817428e-05
6.42703650933458e-05
0.00012622205687990324
0.00022560402437097357
0.00037435403995496097
0.0005843755300381018
0.000866326270492869
0.0012283753158071678
0.0016750773859072784
0.002206492327813986
0.002817637978467967
0.0034983170638742283
0.00423331181296212
0.005002900926183227
0.005783626720558161
0.0065492269999834025
0.007271645342992361
0.007922042321021127
0.00847174520732575
0.008893091603112009
0.00916014024757285