# vtk DataFile Version 4.1 
COMMENT
ASCII
DATASET STRUCTURED_POINTS 
DIMENSIONS 100 100 1 
ORIGIN 0 0 0
SPACING 0.12693303650867893 0.12693303650867893 0 
POINT_DATA 10000
SCALARS U double 1
LOOKUP_TABLE default
0.0
0.0
0.0
0.0
0.0
0.0
0.0
0.0
0.0
0.0
0.0
0.0
0.0
0.0
0.0
0.0
0.0
0.0
0.0
0.0
0.0
0.0
0.0
0.0
0.0
0.0
0.0
0.0
0.0
0.0
0.0
0.0
0.0
0.0
0.0
0.0
0.0
0.0
0.0
0.0
0.0
0.0
0.0
0.0
0.0
0.0
0.0
0.0
0.0
0.0
0.0
0.0
0.0
0.0
0.0
0.0
0.0
0.0
0.0
0.0
0.0
0.0
0.0
0.0
0.0
0.0
0.0
0.0
0.0
0.0
0.0
0.0
0.0
0.0
0.0
0.0
0.0
0.0
0.0
0.0
0.0
0.0
0.0
0.0
0.0
0.0
0.0
0.0
0.0
0.0
0.0
0.0
0.0
0.0
0.0
0.0
0.0
0.0
0.0
0.0
-2.886453806178474e-12
1.4157633249503097e-09
1.565600944387606e-08
8.86926759873627e-08
3.6069636758337266e-07
1.1876225915434665e-06
3.360188371698799e-06
8.459635273761206e-06
1.938623984474391e-05
4.108310683978199e-05
8.145356352635596e-05
0.0001524370325516134
0.00027116962449546405
0.00046111781877914093
0.0007530433347273353
0.0011856410302200809
0.0018056940623400039
0.0026676135571511764
0.00383227247685249
0.00536510107307067
0.007333477815865982
0.009803517291663157
0.012836417522211515
0.016484576774938416
0.02078771940743255
0.02576927917325078
0.031433276716536965
0.03776189788660208
0.044713934868572544
0.05222419783118246
0.06020394606475977
0.06854232939495779
0.07710877726370935
0.08575622749924479
0.09432505152761213
0.10264750854387841
0.11055254788410643
0.11787077563047904
0.1244394068797724
0.13010703731592302
0.1347380848449154
0.1382167722407743
0.14045054339370505
0.14137282753313118
0.14094508677263323
0.13915810193084546
0.13603246964231835
0.131618300453371
0.1259941233607975
0.11926501776827324
0.1115600098790718
0.10302878784020891
0.09383780899810898
0.08416589347309007
0.07419942030895119
0.06412726428888518
0.05413563086570991
0.04440296060733452
0.03509508000148159
0.026360769898019776
0.01832790538429071
0.011100293078803775
0.0047552981952577135
-0.000657678851501562
-0.00511784059610804
-0.00863272016150917
-0.011236970379716476
-0.012990178769069454
-0.013973675938777885
-0.014286337935887121
-0.014039460268001765
-0.013350904034367913
-0.012338864323618316
-0.011115749980759114
-0.009782744023553825
-0.008425593737260019
-0.0071120415696110965
-0.0058910712687337136
-0.004793861804596999
-0.0038360866641343463
-0.003021033740672544
-0.0023429865675335055
-0.0017903943581686044
-0.0013485230028988206
-0.0010014618516475538
-0.0007335091515280614
-0.000530044520150023
-0.0003780206492739483
-0.00026618939284045554
-0.00018514571416334595
-0.00012724584914049192
-8.644062480545688e-05
-5.805856775976922e-05
-3.856992884743054e-05
-2.5357230167030625e-05
-1.6508914766429115e-05
-1.0639629246520132e-05
-6.715326261661265e-06
-3.7761988218463987e-06
-1.6474397714294206e-07
-5.956631484736764e-12
4.958558076958833e-09
4.4387561561591926e-08
2.220906595718274e-07
8.239478448864619e-07
2.516791998407499e-06
6.674443547359485e-06
1.586040897140861e-05
3.44795293511969e-05
6.958312943816508e-05
0.0001317771102174638
0.00023614565677447806
0.00040307201229599607
0.0006588192629211212
0.0010357337633253513
0.0015719541993062065
0.002310549194179917
0.0032980612034879887
0.004582496971675419
0.006210866531293693
0.008226425319372054
0.010665810745948755
0.013556281275058946
0.016913261514356966
0.02073837254830289
0.025018086698111994
0.029723095463358874
0.034808424611000505
0.04021427700016923
0.045867536626287043
0.051683830056494046
0.05757001591342145
0.06342695987769657
0.06915245109459628
0.07464412421713067
0.0798022673369201
0.08453241723504246
0.08874766725357666
0.09237063742256829
0.09533507944318262
0.09758710934615093
0.09908607719446137
0.09980509558145881
0.09973125675039417
0.09886557207790853
0.09722266779406707
0.09483026770093865
0.09172848799227241
0.08796896190398605
0.08361380383572344
0.07873441496197525
0.07341012658153928
0.06772667508585539
0.06177450504846735
0.05564690591617789
0.04943800383958859
0.043240652830597096
0.037144296379593975
0.031232897363414096
0.02558305378675945
0.020262422557195087
0.015328555623204478
0.010828208406604813
0.006797112233473201
0.0032601221768435674
0.00023158014928212846
-0.0022843038059831592
-0.004293228001028646
-0.005810820084628807
-0.006862843884603002
-0.007485369699474388
-0.007724559983027842
-0.007635692930925337
-0.0072811492727018964
-0.006727315935437616
-0.006040657807159046
-0.005283482843632728
-0.004510078990516682
-0.0037638709226198086
-0.003076030410711014
-0.002465642786080926
-0.0019411917496934955
-0.0015028823836869154
-0.0011452411120490798
-0.0008595107635149177
-0.0006355421808088546
-0.00046308956796403737
-0.0003325753906404178
-0.00023546883347127964
-0.0001644257843212788
-0.00011329908949182493
-7.708005806120316e-05
-5.179831085855584e-05
-3.439263469088292e-05
-2.2564158967901623e-05
-1.4624969353345574e-05
-9.35187060472353e-06
-5.835794082442864e-06
-3.2416841362451473e-06
-1.4488261127286606e-07
-6.341887567251693e-12
1.627262950466042e-08
1.2830182564632805e-07
5.936862362245914e-07
2.080489227747321e-06
6.075078565955618e-06
1.5522569733793e-05
3.5739903963668484e-05
7.560760964785008e-05
0.00014899774446988038
0.00027633902196355365
0.0004861653732892091
0.0008164519378875835
0.0013155221994446238
0.0020423178145370963
0.0030658600722646575
0.0044637953624474865
0.006319998777617705
0.008721299568574394
0.01175347831749022
0.015496758099868564
0.020021062763598965
0.025381340289435304
0.03161324710596035
0.03872946251950694
0.04671685584367737
0.05553466861512912
0.06511380719895019
0.07535727349409886
0.08614169872843468
0.09731989149503008
0.10872426873730336
0.12017100842031224
0.1314647449895574
0.14240362234509252
0.15278452225436498
0.1624082968689808
0.17108485019187714
0.17863793295968078
0.1849095366892911
0.18976379412102978
0.1930903138379658
0.1948068956434697
0.1948615898263383
0.1932340774826198
0.18993636055645297
0.18501275933982744
0.17853922209965406
0.17062195666060045
0.16139539765861902
0.15101952642889577
0.1396765639386593
0.12756706194118772
0.11490542511135242
0.10191490925101203
0.08882216000074866
0.07585138517342231
0.06321829351143378
0.051123983330718256
0.03974902302358669
0.02924802417555826
0.019745054393051367
0.011330253775669867
0.00405798791732453
-0.0020532228351292257
-0.007018916366523303
-0.010885171017447685
-0.013723707492234729
-0.01562614774531629
-0.016698063304920026
-0.01705340944256837
-0.01680976967720411
-0.016084568219864044
-0.01499212675429724
-0.013641242200266043
-0.012132918079737062
-0.01055801243797343
-0.008994818435836244
-0.007506863530257533
-0.006141381057020273
-0.004928894700645102
-0.003884157999543579
-0.0030083818689069512
-0.0022923816552411695
-0.0017200911839246877
-0.0012718793182164142
-0.0009272470517066502
-0.000666707317699136
-0.0004728668806743421
-0.00033087459209562274
-0.00022845156357838357
-0.00015569519134223092
-0.00010478908419826021
-6.969068091439581e-05
-4.582717156003435e-05
-2.9809649455022746e-05
-1.9163137034235456e-05
-1.2037777680878628e-05
-6.722741453033017e-06
-2.950380639319777e-07
2.0013291850869014e-11
4.833743866730486e-08
3.4207887206148944e-07
1.4703817147212728e-06
4.864678365693536e-06
1.3538345711717877e-05
3.3174652481917025e-05
7.357750639431673e-05
0.00015043290609743166
0.00028724999609947265
0.0005172737187610225
0.0008851026278197114
0.0014477199190636937
0.002274662246908161
0.0034471110257811876
0.005055788327161796
0.00719766121352409
0.009971587401887255
0.013473153689921104
0.01778905101356477
0.022991385336201195
0.02913233667017135
0.03623955029011989
0.04431258067177344
0.05332061959245161
0.06320163671934537
0.07386295552963945
0.08518318982384405
0.09701538431820725
0.10919114188933146
0.1215254821659913
0.133822160932681
0.14587918483435502
0.15749427741033314
0.168470086097425
0.17861896095996305
0.18776718027525638
0.19575854209092028
0.20245728161945298
0.207750309815858
0.2115487974516081
0.21378915089326378
0.21443344061056455
0.21346935158492358
0.21090972695577515
0.2067917732900297
0.20117598873047982
0.19414486492897332
0.18580140102647072
0.17626745387549292
0.1656819340149893
0.15419884235028644
0.1419851287914473
0.1292183420620588
0.1160840305281839
0.10277284867158948
0.08947732487753789
0.07638825649863665
0.06369072139582732
0.051559735157974705
0.040155642534428576
0.029619409508535997
0.0200680722865436
0.011590686843570583
0.004245185176685109
-0.0019434450964410353
-0.006983307446331556
-0.010913874212489775
-0.013802433073744293
-0.015739010613551253
-0.016830325744534677
-0.017193471101777366
-0.01695001168614046
-0.016221015383069564
-0.015123235447037647
-0.01376634596539085
-0.012250900198200713
-0.010666622442591462
-0.00909077279383836
-0.007586577043024584
-0.0062019717290504916
-0.004969054928269865
-0.003904587758730993
-0.003011675493757674
-0.002282461660620294
-0.0017014149935352361
-0.0012486728353786102
-0.0009029551606374885
-0.0006437405211016576
-0.00045261707825890884
-0.000313907372540085
-0.00021476729242590187
-0.0001449744772912098
-9.657765276236697e-05
-6.351414997183113e-05
-4.124588746003922e-05
-2.6420690879011655e-05
-1.650788347719921e-05
-9.160293273808259e-06
-4.0307666935255546e-07
1.6036076658387939e-10
1.3260256646361822e-07
8.576585351992524e-07
3.4568360590406992e-06
1.0866279185672231e-05
2.8966779335299945e-05
6.837206641380801e-05
0.0001466743821371119
0.00029100029368271636
0.0005406219033314636
0.000949282163561803
0.0015868488538586978
0.0025399236332861587
0.003911103658676647
0.005816715545289648
0.008382997592617259
0.011740873263860826
0.016019612958643747
0.021339801542604668
0.0278061017863503
0.03550032279217667
0.04447526963411338
0.05474977439047991
0.06630520244906114
0.07908360618651637
0.09298757515485305
0.10788171977707509
0.12359563295142406
0.1399281058628832
0.15665233216755609
0.17352181712356307
0.19027671170318855
0.20665031155994978
0.22237549186730646
0.23719088664400503
0.25084666103670417
0.2631097638298733
0.27376858283564015
0.2826369563223667
0.28955751857946455
0.2944043769964144
0.2970851319892035
0.29754226033444064
0.29575388770087585
0.29173397816822794
0.28553196804109976
0.2772318689989922
0.26695086222019654
0.2548374011934934
0.24106883709732804
0.22584857750943335
0.20940278746441623
0.19197664216394517
0.17383014358388815
0.15523351932405893
0.1364622316447603
0.11779163788485024
0.09949136043111081
0.08181944532333027
0.06501641408251713
0.04929934469639846
0.03485615649294288
0.021840320811652242
0.010366273250024866
0.000505856931743054
-0.007713834532351917
-0.014310842642271634
-0.019346644905341707
-0.022922198544464274
-0.025171781855588878
-0.026254978725691186
-0.02634745106333394
-0.025631373747084144
-0.02428648850135277
-0.022482618531387177
-0.02037418404387558
-0.018096845552225422
-0.015765999932386438
-0.013476589528620577
-0.01130363438621056
-0.009303055012282705
-0.007512627927576088
-0.005953175403147132
-0.004630218520044896
-0.003536272769845786
-0.002653777534803655
-0.001958424841364352
-0.0014224962180364419
-0.0010177936846401464
-0.0007178597483487306
-0.0004993649341470854
-0.00034272352281524825
-0.00023211998025922365
-0.00015516888344887503
-0.00010240411888939764
-6.672962535936902e-05
-4.288622777071307e-05
-2.6873542709702582e-05
-1.4931554419636563e-05
-6.531273479900216e-07
6.773963638799174e-10
3.393165073909105e-07
2.0303778107041273e-06
7.722032583397641e-06
2.3151651895424732e-05
5.926731554129777e-05
0.00013498479154309452
0.00028041596803869825
0.000540253414437387
0.0009768682496730044
0.001672606522291295
0.0027307745629140665
0.004274892902925727
0.006445961456971057
0.009397691745140282
0.01328989234339579
0.01828040701936325
0.024516171280500144
0.032124051878841486
0.041202156496871
0.051812250370100454
0.06397380554620852
0.07766005565424695
0.09279625582447827
0.10926017429936732
0.1268846864688304
0.14546221580808377
0.16475067635517754
0.18448051973951987
0.2043624740197855
0.22409557642934788
0.24337514059713528
0.2619003533899429
0.27938126001288593
0.295544962142611
0.3101409176533411
0.32294528830146396
0.33376433124182825
0.3424368702758756
0.3488359130022026
0.3528695009409736
0.35448089205631594
0.35364817996703174
0.3503834526643772
0.3447315868725229
0.33676876332801653
0.3266007741312407
0.3143611767250996
0.3002093306787779
0.2843283339509722
0.2669228553630143
0.24821684043243997
0.2284510495139459
0.2078803716570696
0.1867708463121896
0.1653963198523685
0.1440346668099389
0.1229635186498405
0.10245546737184683
0.08277274823449765
0.06416145569272162
0.04684540873257938
0.031019854791989973
0.016845282727587
0.00444169991782598
-0.006116192242895298
-0.014802431104939149
-0.021641322599652322
-0.026706606243699565
-0.0301179338045609
-0.03203458302675516
-0.03264665935240103
-0.032164410924657716
-0.030806615756138207
-0.02878920091896424
-0.026315244811459037
-0.023567268824978983
-0.020702290712697826
-0.017849603046002215
-0.015110802665037308
-0.012561354185394065
-0.010252972155213608
-0.00821630822587852
-0.006463715337382507
-0.004992096435933885
-0.00378593962315767
-0.002820583062760412
-0.00206560385081158
-0.0014880817985879432
-0.0010554307416942227
-0.0007375432855225446
-0.0005081306988716939
-0.00034529717048349196
-0.00023150843173750635
-0.00015316730407500674
-9.999227046171753e-05
-6.432017238491333e-05
-4.02875949120246e-05
-2.2336895301278275e-05
-9.749314862773155e-07
2.265104684821753e-09
8.161985716200813e-07
4.560367513347862e-06
1.6452375897503412e-05
4.721208685799527e-05
0.00011636576752909051
0.0002562560159687021
0.0005163856652770319
0.0009675408774699033
0.0017050245076070192
0.0028503201673969335
0.00455061249703731
0.0069757981487658825
0.010312902263450722
0.014758121235091196
0.02050699590766468
0.027743438352797974
0.03662846206546155
0.04728948885097201
0.05981103155348462
0.07422739906812226
0.09051786597123614
0.10860452350359288
0.12835280934827814
0.1495745228641572
0.17203298490752145
0.1954499040264817
0.2195134636033726
0.24388714203789266
0.2682188114388141
0.2921497190652433
0.3153230294509079
0.33739168440519335
0.3580254153812959
0.37691681260830956
0.39378641454225494
0.4083868280571609
0.42050592426720496
0.42996917786795036
0.4366412309677357
0.4404267674101086
0.44127078246908497
0.43915832729781523
0.43411379914819737
0.42619983837571473
0.4155158825166635
0.4021964169076216
0.3864089508033934
0.368351737946851
0.34825125113244043
0.32635941150241216
0.302950565146113
0.2783181921471921
0.2527713268179878
0.22663066300370538
0.2002243158845561
0.17388321286490252
0.14793609245818862
0.12270410330921011
0.09849501739202772
0.07559710344912512
0.05427274978278055
0.03475197962144835
0.01722606642686163
0.001841528198713168
-0.011305145573639985
-0.022171611223560688
-0.030772158163205415
-0.0371780778903841
-0.04151547432207615
-0.043960209048558956
-0.044729910828670186
-0.04407330980751628
-0.042257544573046
-0.039554460304876464
-0.03622717234886394
-0.032518220514215976
-0.028640435937812504
-0.0247712063668842
-0.021050256254513715
-0.017580505247323436
-0.014431181371566364
-0.011642234027232393
-0.009229213774013135
-0.0071880694725504615
-0.0054996230366888745
-0.004133699382494705
-0.0030529607068724334
-0.002216443680539892
-0.0015827003010121137
-0.0011123778871629283
-0.0007700860691588782
-0.0005254841975509784
-0.0003536401935562122
-0.00023481080832997092
-0.00015383556109565028
-9.929436148046107e-05
-6.237202870160257e-05
-3.461544664596251e-05
-1.5046375738738996e-06
6.582770211822424e-09
1.8564466254186454e-06
9.755191596743422e-06
3.352731632152418e-05
9.235668357159749e-05
0.00021964356785217514
0.0004684650489980914
0.0009169543065538548
0.0016727380937324782
0.002875528446535014
0.004697080524510727
0.007337991300849472
0.011021180654265298
0.015982304539676608
0.022457731512573808
0.030671010155220804
0.04081892645032981
0.05305828162103815
0.06749442068463707
0.084172336766947
0.10307090402173878
0.1241004939390436
0.14710394348060016
0.1718605981335523
0.1980929672834497
0.22547541114410377
0.25364422638874284
0.28220850324074154
0.31076117756723415
0.3388897833190516
0.3661865097498581
0.3922572723395322
0.41672960696286687
0.4392592871380547
0.45953564036934175
0.4772856001048143
0.4922765747958184
0.5043182462451044
0.5132634277971503
0.519008121148275
0.5214909108036512
0.5206918294417741
0.5166308173146179
0.5093658856217773
0.4989910785261993
0.48563431181393085
0.4694551485920924
0.4506425541496099
0.42941265335428935
0.4060064948773335
0.3806878073155753
0.3537407132351736
0.3254673487988605
0.2961853197460905
0.26622491019595845
0.23592595054469157
0.2056342465263299
0.1756974755100745
0.14646047069259108
0.11825984126335495
0.09141791862566236
0.06623607612679334
0.042987541845196035
0.021909908382490115
0.0031976359407419326
-0.01300506114570681
-0.026610467283086282
-0.03759221164015093
-0.04598812390223095
-0.051900528934616774
-0.0554934926191927
-0.05698670466573979
-0.0566459595809086
-0.054770565935363745
-0.051678438020763
-0.04769003022210562
-0.043112565634482236
-0.03822608999254789
-0.033272689531942096
-0.02844975536405391
-0.023907546764812427
-0.019750652797403016
-0.0160424408555886
-0.012811331166501204
-0.010057777392124547
-0.007761097828697066
-0.005885659256664991
-0.004386231884720626
-0.0032125242672869847
-0.0023129605801749478
-0.0016377288803201657
-0.0011410798957413766
-0.0007828455276157841
-0.0005291888345796724
-0.00035266963388746466
-0.0002317673578949402
-0.00014998208150613764
-9.43816224140532e-05
-5.238034219186186e-05
-2.2690396741073508e-06
1.7284763376575482e-08
4.0117469068742e-06
1.994015488666624e-05
6.552184490649749e-05
0.000173700996797725
0.00039936303372366505
0.0008262394902279638
0.0015729070994262464
0.0027966944880195945
0.004694424858727729
0.00749924493709506
0.011473264094022549
0.016896267257911383
0.024051276126192973
0.03320813209856629
0.04460650525558642
0.058439775030525984
0.07484109191068139
0.09387265363133841
0.11551886719553835
0.13968367673319232
0.16619196785723905
0.19479465050895786
0.22517679764530807
0.25696808463771376
0.2897547293056173
0.32309216143846536
0.35651773477409077
0.38956291358472006
0.4217645015223974
0.45267461661005876
0.4818692416889548
0.5089552868532895
0.5335761857512175
0.5554161104387249
0.5742029312292857
0.5897100715255964
0.6017574164437054
0.6102114317594441
0.6149846396899448
0.6160345831691693
0.6133623929174128
0.6070110534894152
0.5970634468225887
0.5836402353358096
0.5668976317057673
0.5470250891246351
0.5242429339448602
0.4987999518069854
0.4709709281858058
0.44105413429914253
0.40936873905055754
0.37625211678472437
0.3420570090043129
0.30714848606129874
0.2719006429145478
0.2366929526841631
0.20190619499231657
0.1679178757400874
0.1350970643872551
0.10379859757532747
0.07435663734926236
0.04707763052312286
0.02223279324782911
5.033927916679736e-05
-0.019292223647114477
-0.03567529633817187
-0.04904335727770131
-0.05940949095438603
-0.06685763445506399
-0.0715419290101804
-0.0736826720172202
-0.07355857206738343
-0.07149532150072607
-0.06785090503409232
-0.06299851685121652
-0.05730838741280059
-0.051130126497450704
-0.044777271929387887
-0.03851552984681221
-0.03255570534814523
-0.027051637395357313
-0.022102721559058968
-0.017760003127039924
-0.014034488326585496
-0.010906304120140996
-0.008333587916124737
-0.0062603841562815215
-0.004623221983009573
-0.0033563402995126727
-0.0023956751098777925
-0.0016817557336772785
-0.0011616322362842425
-0.0007899329353551665
-0.0005291536459003233
-0.00034929287272938547
-0.0002268943354070637
-0.00014319953256047198
-7.954317922001232e-05
-3.431872378589913e-06
4.186898267378035e-08
8.269348736180609e-06
3.9061041812542284e-05
0.00012308940127031518
0.0003147329751792006
0.0007007522625308751
0.0014082571856346123
0.0026104061567880036
0.004528387560017703
0.007428613799002022
0.011614659530314445
0.0174141841920374
0.02516176255207513
0.0351790879612246
0.04775433090128312
0.06312249849998332
0.0814484647267899
0.10281397867010512
0.12720948336823729
0.15453106838555752
0.18458240474391135
0.2170811218347463
0.2516688115866835
0.28792369344259205
0.3253749355260969
0.36351768212867236
0.4018279589139353
0.43977678778171037
0.4768430187503595
0.5125245570922377
0.5463478167346486
0.5778753577324014
0.6067117633756487
0.6325078818268169
0.654963601119938
0.6738293492577432
0.6889065177869212
0.7000470021939695
0.7071520397214922
0.7101705079535788
0.7090968281379408
0.7039685973289252
0.6948640540443866
0.6818994637354513
0.6652264931223912
0.6450296262707418
0.6215236599510007
0.5949513010606978
0.565580874394013
0.5337041345502982
0.49963416106002895
0.4637033007385507
0.42626110583916543
0.3876722009281018
0.34831399595803963
0.30857414853910403
0.26884766612673483
0.22953353056984194
0.19103072564100224
0.15373355588229118
0.11802616588512432
0.0842762066018882
0.05282765254177501
0.02399285242299905
-0.001956004636683784
-0.024795708964633588
-0.04436071246500872
-0.060551126885534136
-0.07333938809129283
-0.08277486891176614
-0.08898571228632085
-0.09217722190378781
-0.09262630694553953
-0.09067174240919511
-0.08670037591387977
-0.08112986434325598
-0.07438900955756209
-0.06689720228003576
-0.0590447774245272
-0.05117613588456511
-0.04357723662688844
-0.03646851603235384
-0.030003538266594278
-0.024272878363876035
-0.019312070145015348
-0.015112060967748737
-0.011630567327888244
-0.008802979827900907
-0.0065519028106982005
-0.004794883566089369
-0.0034502660988332606
-0.0024413360755944254
-0.0016990146619251495
-0.0011633591591677104
-0.0007840912160526106
-0.0005203184137709733
-0.0003394736164733441
-0.00021493530827537574
-0.0001194910011298872
-5.134867620238321e-06
9.47829164201397e-08
1.63143541615289e-05
7.352149822370128e-05
0.0002227668572463082
0.0005504555258427176
0.0011886840079042467
0.0023233269980708106
0.004197884275475193
0.007111569797614468
0.01141087373957282
0.017474750263455817
0.025694496876497556
0.03645012811557514
0.05008549017645378
0.06688446541498914
0.08705039543400972
0.11069038039182014
0.13780549167162845
0.16828727253117146
0.20192029055243096
0.23839001425589196
0.277294950862423
0.3181618104529264
0.3604624382173273
0.4036313507158721
0.4470828869729005
0.4902272037538015
0.5324845743984696
0.5732976675025344
0.6121416692902321
0.6485322632059098
0.6820315899086683
0.7122523829198638
0.7388605149240071
0.7615762037822416
0.7801741225050823
0.7944826399995427
0.8043823946049341
0.8098043743443296
0.8107276493814597
0.8071768753118423
0.7992196617373462
0.7869638795591732
0.7705549626211037
0.7501732444998996
0.7260313589547228
0.6983717222942134
0.6674641071287023
0.6336033090479879
0.5971069000909219
0.5583130548385318
0.5175784259745053
0.47527603568497995
0.4317931369162066
0.387528984117581
0.3428924368980748
0.2982993028069047
0.2541693087529993
0.21092257685211113
0.16897547318156733
0.12873570141250845
0.09059653260837282
0.05493010272509872
0.02207977478530589
-0.0076483444335353305
-0.03399452415793303
-0.05675481689216636
-0.07579025461509999
-0.09103519210830059
-0.10250403952380113
-0.11029556062624746
-0.1145939215638245
-0.11566577874942818
-0.11385290887179225
-0.10956021442600031
-0.10323937373380652
-0.09536891201025559
-0.08643198903976829
-0.07689364255607604
-0.06717949286043817
-0.057657911072838096
-0.048627329205160455
-0.04030974344179489
-0.03285063274392763
-0.026324648727217126
-0.02074571672054805
-0.016079772617233236
-0.01225831102691757
-0.009191199183217301
-0.006777696608912067
-0.0049151573567457925
-0.0035053463252964637
-0.002458600291746607
-0.001696201154963303
-0.0011513392620324265
-0.0007689578386524164
-0.0005045131182510261
-0.0003208037774567385
-0.0001786329116172972
-7.643627421956862e-06
2.0232847206623975e-07
3.0897031878130844e-05
0.00013328013061220437
0.0003891824296688264
0.0009309479073780443
0.0019525050986204065
0.003715894577894174
0.006551012353817367
0.010847338293991546
0.017037604435937
0.025574573450710632
0.03690310513938605
0.051430317424737075
0.06949682156616997
0.09135174917993144
0.11713368656851965
0.1468588282803798
0.18041680374989708
0.21757384577386432
0.2579823477811237
0.30119544521510166
0.3466850613974227
0.3938618553855484
0.44209565473987317
0.49073519827119383
0.5391263029602669
0.5866278635531691
0.6326253622502864
0.6765417905812038
0.7178460576326703
0.7560590781078316
0.7907578056526477
0.8215775100121447
0.8482126004921327
0.8704162821604404
0.8879993032277753
0.9008280184199784
0.9088219584475891
0.9119510628479498
0.9102327041482822
0.9037286061061508
0.892541737673765
0.8768132468381937
0.8567194839427101
0.8324691517752488
0.8043006089427162
0.7724793432512996
0.7372956225069939
0.6990623209566076
0.6581129101980024
0.6147995935292503
0.5694915521242898
0.522573259865542
0.4744428108991584
0.4255101898468872
0.37619539912692423
0.3269263413535255
0.278136338188364
0.230261151962858
0.1837353655254981
0.13898797285932707
0.09643704290863597
0.05648334735307932
0.019502895435219544
-0.01416159999684565
-0.044210189212211225
-0.07039580842090723
-0.0925346202074556
-0.11051596413896071
-0.12431115445231655
-0.13398024472323625
-0.1396758288447209
-0.1416429901393302
-0.1402146674250595
-0.1358019900964357
-0.12887954099274662
-0.1199660135253529
-0.1096012913731135
-0.09832152191323282
-0.08663418357829226
-0.07499536031941818
-0.06379134859900903
-0.05332629696762681
-0.04381685147574068
-0.03539386816464443
-0.02811033289820775
-0.02195388954825468
-0.01686196843568067
-0.012737487907769351
-0.009463428557478263
-0.006915124338856664
-0.004969715980980889
-0.003512728340955569
-0.002442080663684936
-0.001669993584231729
-0.0011232136417562398
-0.0007416179111160034
-0.0004739447628762142
-0.0002644626664559738
-1.126665246516762e-05
4.0996103454905734e-07
5.631905701454937e-05
0.00023320349309272328
0.0006575770308552089
0.0015250767186944583
0.0031104831973174487
0.005770170012305652
0.009934852964821515
0.016092219744838314
0.024760629352059395
0.036456451963295645
0.05165852005537756
0.07077345852967538
0.09410536987076215
0.12183259402821524
0.15399322902660892
0.19047998834656724
0.23104395904711966
0.27530603245366886
0.3227742682364231
0.3728652282097754
0.42492734133212834
0.4782645742081351
0.5321590111545852
0.5858913279559781
0.6387585195464623
0.6900885758870194
0.7392520704116925
0.7856708237419442
0.8288239345495262
0.8682515388354246
0.9035566811655735
0.9344056699317355
0.9605272557501181
0.9817109278166157
0.997804575055944
1.0087117124524914
1.0143884311553952
1.0148401952891999
1.0101185791834972
1.0003180155239764
0.9855726068828395
0.9660530392157666
0.9419636252349395
0.9135394972069809
0.8810439619477847
0.84476602499942
0.8050180856986136
0.7621337996772117
0.7164660999007914
0.6683853612746942
0.6182776867176171
0.5665432839723973
0.5135948918231168
0.4598562013861851
0.4057602024516666
0.35174736648080573
0.2982635573410382
0.2457575394757261
0.1946779332970581
0.1454694527573986
0.0985682552587252
0.05439624548328213
0.01335420927313768
-0.024186281974480993
-0.05789215677572086
-0.08747914374256023
-0.11272274324546185
-0.1334693375149576
-0.149646713249008
-0.16127310074732243
-0.1684637174887218
-0.17143377446910507
-0.1704969897010607
-0.16605887538546021
-0.15860442945184328
-0.14868035511671085
-0.13687251694364938
-0.12377995585200599
-0.1099873416813294
-0.09603813772136703
-0.08241088647491511
-0.06950082702033059
-0.05760850487643157
-0.046936194669377436
-0.03759196053456208
-0.029600217035160133
-0.022916916275727294
-0.017447115242624583
-0.013062718264199889
-0.009618585299938103
-0.006965809678410171
-0.004961629757830919
-0.0034759988332827996
-0.0023951954086862764
-0.0016229304777686082
-0.001078977546464779
-0.0006934730178721112
-0.0003879810436116569
-1.6452992264102462e-05
7.925425192753567e-07
9.904089640541463e-05
0.000394628388927376
0.001076458321177757
0.002423942069777405
0.004813143851963577
0.00871181162645064
0.014661824421074018
0.02325010107438734
0.03507090817439158
0.05068380341859146
0.07057195688817966
0.09510530308162096
0.12451204690127175
0.15886072807575538
0.19805361543813207
0.2418308943213215
0.28978409403399286
0.3413765599953883
0.39596851111002546
0.45284428406490457
0.5112396659323106
0.5703676581133793
0.6294415092106447
0.6876943313583415
0.744395026365114
0.7988605696767844
0.8504649252532844
0.8986449999888818
0.942904107332939
0.9828134147316608
1.018011816789096
1.0482046217411993
1.0731613756637952
1.0927130858474998
1.1067490476541249
1.1152134308323496
1.118101742565242
1.1154572549226602
1.1073674625807877
1.0939606209953272
1.0754024039999837
1.0518927115499963
1.023662651822442
0.9909717162096993
0.9541051602815269
0.9133715981722464
0.8691008118861483
0.8216417706376027
0.771360848534389
0.7186402216418047
0.6638764176308479
0.6074789826066447
0.5498692199956832
0.4914789450936376
0.432749185545168
0.374128742231886
0.3160725066616281
0.2590394104261844
0.20348986097795055
0.14988249848114094
0.09867009498071581
0.05029441541888676
0.0051798773754328205
-0.03627410915679861
-0.07370216156727903
-0.10678322458664545
-0.1352519112627972
-0.15891045130633452
-0.17764059838955956
-0.19141463662314448
-0.20030445026205043
-0.2044875164971924
-0.20424868577231348
-0.1999767579110368
-0.19215516284366724
-0.18134650992097417
-0.16817135342966483
-0.1532821806729903
-0.13733428312577198
-0.12095572035575836
-0.10471892250228049
-0.0891165049747546
-0.0745435327751363
-0.06128777993765284
-0.04952856886400467
-0.03934370324862169
-0.03072302546338803
-0.02358642355316901
-0.01780381058277462
-0.013214727356434882
-0.009645702152080098
-0.006924186052430058
-0.004888589227764514
-0.0033945013266338557
-0.0023174067493596756
-0.0015517115981470483
-0.0010032975983779264
-0.0005629301537097623
-2.3758564296008604e-05
1.4679444161363483e-06
0.00016839522192526894
0.0006470355037995224
0.0017101175846085798
0.0037435441673909007
0.007244731958526118
0.01280625982659381
0.021084696465188263
0.032757808740818684
0.0484752308198969
0.06880852578259733
0.09420634857887702