# vtk DataFile Version 4.1 
COMMENT
ASCII
DATASET STRUCTURED_POINTS 
DIMENSIONS 100 100 1 
ORIGIN 0 0 0
SPACING 0.12693303650867893 0.12693303650867893 0 
POINT_DATA 10000
SCALARS U double 1
LOOKUP_TABLE default
0.0
0.0
0.0
0.0
0.0
0.0
0.0
0.0
0.0
0.0
0.0
0.0
0.0
0.0
0.0
0.0
0.0
0.0
0.0
0.0
0.0
0.0
0.0
0.0
0.0
0.0
0.0
0.0
0.0
0.0
0.0
0.0
0.0
0.0
0.0
0.0
0.0
0.0
0.0
0.0
0.0
0.0
0.0
0.0
0.0
0.0
0.0
0.0
0.0
0.0
0.0
0.0
0.0
0.0
0.0
0.0
0.0
0.0
0.0
0.0
0.0
0.0
0.0
0.0
0.0
0.0
0.0
0.0
0.0
0.0
0.0
0.0
0.0
0.0
0.0
0.0
0.0
0.0
0.0
0.0
0.0
0.0
0.0
0.0
0.0
0.0
0.0
0.0
0.0
0.0
0.0
0.0
0.0
0.0
0.0
0.0
0.0
0.0
0.0
0.0
-1.3369185544743521e-12
6.557389741761689e-10
7.426779627393828e-09
4.290096381514381e-08
1.7774083620619105e-07
5.961584319757109e-07
1.7186607601736813e-06
4.4105013993850545e-06
1.0307143805469548e-05
2.228610912649915e-05
4.5106374361282694e-05
8.622148943810089e-05
0.00015675154245384346
0.00027257407850004526
0.00045546818927712424
0.0007342229286903183
0.0011456046048890264
0.001735070290921739
0.0025571188270003763
0.003675185920379373
0.00516101544619134
0.007093472200002375
0.009556798768972337
0.012638357130837139
0.016425930464485993
0.021004689450272236
0.02645394792332833
0.0328438440195745
0.04023208484677834
0.04866088604127004
0.05815422383297234
0.06871549835708113
0.08032568500240687
0.09294202758968166
0.10649730489769015
0.12089968190456368
0.13603314006252076
0.15175846751623234
0.16791478054016304
0.1843215413902573
0.20078103474158498
0.21708126421188567
0.23299923131281047
0.2483045606172265
0.26276343605881985
0.2761428132008163
0.288214870215861
0.2987616555277117
0.3075798820716716
0.31448580665548387
0.3193201179414829
0.32195273842915034
0.32228742511603037
0.32026603115669094
0.3158722679324118
0.309134784714481
0.30012936286515385
0.28898000481791447
0.2758586871300996
0.2609835453847777
0.24461527276501643
0.2270515530348178
0.20861942454732607
0.1896655972688112
0.17054492749825162
0.1516074909160576
0.13318496057424425
0.11557724647831162
0.09904052319608389
0.08377779354042159
0.06993296152321571
0.05758901225156412
0.04677037461731001
0.03744898195896653
0.029553078142392733
0.022977553957589752
0.01759459254721611
0.013263623326841579
0.009839934880349725
0.007181656347123151
0.0051550861460718115
0.0036384877723925238
0.0025245081599407694
0.0017213635447556185
0.0011529366210309888
0.0007579610877287638
0.0004885227479935595
0.0003081474195490729
0.00018974688247434766
0.00011364812986160286
6.585395002627378e-05
3.6600841417256964e-05
1.9216033382138396e-05
9.238732315413265e-06
3.758623707618555e-06
9.275638594742771e-07
-3.9049932927928604e-07
-8.538578579165104e-07
-7.621129109401113e-07
-3.3248649741082347e-08
-2.698342449781866e-12
2.2467803472846693e-09
2.0429721653029334e-08
1.0377494451896387e-07
3.909713705718569e-07
1.2133558768013981e-06
3.271099893170991e-06
7.90649266835775e-06
1.749357255835604e-05
3.59523834677954e-05
6.937942165976674e-05
0.00012676519199177817
0.0002207482154027251
0.00036833599116756823
0.0005915109292749717
0.0009176359420522779
0.0013795816517016314
0.0020155147896373637
0.0028683134608101695
0.003984606364538089
0.005413465922081518
0.007204815599915006
0.009407636096134053
0.012068071009999282
0.015227538900404201
0.018920955276399403
0.023175156176125155
0.02800759652420914
0.03342537382519696
0.03942460348012421
0.045990148442717725
0.053095684983818385
0.060704069384848354
0.06876795822531923
0.07723062780685012
0.08602693594624428
0.09508437130831243
0.1043241408533853
0.11366225396311347
0.12301057149687217
0.13227779860335478
0.14137041086119528
0.1501935136679636
0.1586516442779716
0.16664953414412187
0.17409285595518145
0.18088898472534598
0.18694780525591104
0.19218259903548054
0.19651104200331326
0.19985634049251244
0.2021485261877579
0.2033259224115631
0.20333678409690767
0.20214110318807135
0.19971256058807385
0.1960405951314663
0.19113254801651203
0.18501582426646732
0.17773998558384568
0.16937864492674248
0.16003096774469255
0.14982250018667312
0.1389049548282564
0.12745451902461
0.11566825273208903
0.10375825747151624
0.09194355625493722
0.08044001783359235
0.06944912506276421
0.05914681087736865
0.049673824356523705
0.04112902450286876
0.03356658933088698
0.0269974441338999
0.021394432133593783
0.01670009919600667
0.012835631886907865
0.00970955150834099
0.0072251588411538096
0.0052862678614440045
0.0038012561740980665
0.0026857503251153784
0.0018643224321056276
0.0012714713645296202
0.0008520153369305173
0.0005609313425844099
0.0003626757851213608
0.00023008280574325342
0.00014300523722451036
8.689090658645925e-05
5.146029987871879e-05
2.958800364745029e-05
1.642076572714172e-05
8.714156280437122e-06
4.346373205029716e-06
1.966448387583272e-06
7.436640347815574e-07
1.917973032904262e-07
7.570155680256718e-09
-2.796670078223457e-12
7.1801545212969825e-09
5.7385727388468815e-08
2.693772264008155e-07
9.584518451648035e-07
2.8439271718986765e-06
7.389938768563971e-06
1.7317274510092216e-05
3.7313902918078914e-05
7.495284191438013e-05
0.00014179940073333298
0.00025465878117946844
0.00043688402593164167
0.00071963829722906
0.00114298891028928
0.0017567065440211118
0.002620652832365953
0.003804662286640085
0.005387857586065576
0.007457376793251048
0.01010653250628902
0.013432461963985367
0.017533359991962275
0.02250541082950957
0.028439548995554533
0.03541818335811038
0.04351201342591465
0.05277705429065848
0.0632519687386439
0.07495578405732226
0.08788604907797504
0.10201746579383675
0.11730101082665817
0.13366354598747232
0.15100790466588263
0.16921343189534527
0.1881369504976063
0.20761412331553336
0.22746118167203327
0.24747699224083303
0.2674454378503382
0.2871380917317987
0.30631716874875803
0.32473874060400304
0.34215620432131244
0.35832399385107494
0.3730015228500148
0.3859573419215365
0.39697348525927817
0.40584996913863347
0.41240938760672813
0.4165015288778528
0.4180079097300866
0.41684609586261895
0.4129736461808663
0.40639149230676186
0.39714654674588445
0.3853333304874799
0.3710944292881162
0.35461963063556057
0.3361436579964009
0.3159424952691889
0.2943283645492474
0.2716434627925049
0.2482525610125967
0.22453452285915088
0.20087273347665968
0.1776443972919558
0.15520873134929905
0.13389430033244104
0.11398611069994793
0.09571352754884005
0.07924044825859214
0.06465928033596535
0.05198998963140326
0.041184791506109375
0.03213809149045327
0.024700311454343087
0.018693563291347522
0.013926966267272741
0.010209777739057535
0.007361258390670479
0.00521704291863725
0.0036324616425951763
0.0024836000824122687
0.001666893514911899
0.0010978561671365857
0.0007093020866847335
0.0004492445413115359
0.0002785977276400016
0.00016881388627804368
9.961066317743872e-05
5.693473236966998e-05
3.1260454157358404e-05
1.6256274823203086e-05
7.793513003726355e-06
3.239450486351989e-06
9.715303760132487e-07
5.803304077273069e-08
2.6941380050989003e-09
8.564749009641316e-12
2.0681467675450792e-08
1.48069820094802e-07
6.448155353147306e-07
2.1638129968266797e-06
6.113924398655548e-06
1.522430188760767e-05
3.4340990129948415e-05
7.146418017295553e-05
0.00013899880219547155
0.00025514979391060076
0.0004453530485183049
0.0007436010572828766
0.0011935050547431454
0.001848937260043183
0.0027741187288854987
0.004043058277795533
0.005738301014015814
0.00794900445516041
0.01076841866061695
0.014290897369226872
0.018608604493643963
0.02380810121071132
0.02996700235493362
0.03715087803717901
0.04541055021702528
0.05477989827280713
0.06527424679547067
0.07688936710540405
0.089601085005902
0.10336545383768588
0.1181194258041556
0.13378193665536228
0.15025530916834845
0.16742687880264928
0.18517074935200536
0.20334959601855998
0.22181644669444248
0.2404163880042627
0.2589881596572845
0.27736561790809844
0.2953790656834598
0.3128564626641655
0.32962454294859184
0.34550988061849297
0.36033995437765454
0.3739442712183894
0.3861556154726895
0.3968114931384949
0.4057558413165809
0.41284106794567527
0.4179304764842648
0.4209011122290558
0.4216470400146372
0.420083025877831
0.41614854761423564
0.409812002495738
0.40107491889722213
0.3899759195668231
0.37659413809892806
0.3610517684348437
0.3435154393881714
0.32419615497913423
0.3033476185515618
0.28126284412137276
0.25826902514418604
0.2347206569364175
0.2109908935254964
0.18746109572679237
0.1645085606264934
0.1424925902154981
0.12173940533909956
0.10252691187221648
0.08507085165800359
0.06951421599984564
0.05592175292188204
0.044280842964208034
0.03450900854512446
0.02646710444276664
0.01997617185114557
0.014835361284694946
0.010838410414952782
0.007786834458392785
0.005498979504525216
0.003815055472351602
0.002598927473972135
0.0017376929277541457
0.001139973352779395
0.0007335745392917219
0.0004628893472271263
0.00028623490796660296
0.0001732427138264769
0.00010241025746575524
5.892096896626142e-05
3.281405629762181e-05
1.7538048968756795e-05
8.869990841336523e-06
4.141698950511909e-06
1.6667225948921185e-06
7.215190566993593e-08
6.630560417485662e-11
5.4833773126615865e-08
3.5837293769395505e-07
1.4622811567865889e-06
4.659825839200378e-06
1.2607591897615081e-05
3.0234459623126748e-05
6.596001543410796e-05
0.0001332016025795503
0.00025209769330164185
0.00045132365896927314
0.0007698338383758523
0.0012583394632843048
0.001980330978738354
0.003012477047058144
0.004444278286708401
0.006376915291126787
0.008921299236433606
0.012195400389952454
0.016320987002111428
0.021419948448697643
0.027610398883428804
0.035002760686783534
0.04369601272840562
0.05377426072906475
0.06530375058672308
0.07833040534318908
0.09287792694290478
0.10894646857422169
0.12651185454497493
0.14552530353099521
0.16591359782994647
0.18757963534062808
0.21040330122572928
0.23424260118455031
0.2589350064835445
0.2842989709927432
0.31013559128836876
0.3362303914960114
0.36235522431612366
0.38827028818144976
0.4137262675215284
0.4384666085652754
0.46222994699217373
0.4847527060684835
0.5057718846870866
0.5250280539304766
0.5422685782869905
0.5572510732725846
0.5697471046473637
0.5795461252654357
0.5864596333467488
0.5903255199909749
0.591012553357166
0.5884249213785251
0.582506723593323
0.5732462655921159
0.5606799677869436
0.5448956567782186
0.5260349685049319
0.504294566931447
0.47992588215191656
0.4532331092587657
0.4245692909156956
0.39433042813779445
0.3629477058262395
0.3308780483999274
0.29859329815416297
0.2665683100921919
0.23526819130433393
0.2051348352263081
0.17657290102434556
0.14993555357655344
0.12551064129793635
0.10350847609149282
0.08405281168166319
0.06717675682687917
0.05282501731679216
0.04086299810664803
0.03109208761786441
0.02326923602216126
0.017128118881895332
0.012399018992103047
0.008825098022638844
0.0061737521387790935
0.004242890103464931
0.0028628866537102103
0.0018954429624367063
0.0012306222014840744
0.0007830670382748782
0.00048804517758333285
0.00029766339623609676
0.00017740472643439675
0.00010306272149529956
5.811966952067499e-05
3.15966799074403e-05
1.6373016775901124e-05
7.92704243018696e-06
3.3540302980462277e-06
1.4628148381527712e-07
2.6987325751720665e-10
1.3521104151815797e-07
8.168313180295702e-07
3.143051856861481e-06
9.548693288357167e-06
2.480143576223451e-05
5.737630440080704e-05
0.00012119291422404217
0.00023763368269538585
0.0004376931227601286
0.0007640513174884453
0.0012728305812200321
0.002034791124242749
0.0031357517315404996
0.004676081628788687
0.0067691914534342415
0.009539043052678794
0.01311678728979947
0.01763671501655436
0.023231760616780887
0.03002882558042458
0.03814419086383106
0.04767926414342593
0.05871686671968128
0.07131821133217119
0.08552066329623029
0.10133631931970599
0.11875138602635972
0.13772629699933442
0.15819647491020483
0.18007362447876904
0.2032474319832651
0.22758754642129717
0.25294572439515967
0.2791580334092889
0.30604702465073463
0.3334238048325304
0.3610899559806616
0.3888392711393754
0.4164592921786014
0.4437326528108814
0.47043824538257345
0.49635224396799354
0.5212490288246271
0.5449020684411636
0.5670848252624436
0.5875717596346699
0.6061395133447911
0.6225683588755275
0.6366440024451658
0.6481598270390102
0.6569196546592102
0.6627410933455494
0.6654595123853047
0.664932656719629
0.6610458672278717
0.6537178162157097
0.6429065969856234
0.6286159245818601
0.6109011162534023
0.5898744333763324
0.5657092947341461
0.5386428317440539
0.5089762689265708
0.477072693824812
0.4433519350086931
0.4082824816700287
0.37237061889100925
0.3361471683092691
0.300152365044071
0.2649194444452936
0.23095747936353683
0.19873397286940317
0.1686577688925408
0.14106306143187988
0.1161956429907688
0.0942029015759023
0.07512923501272024
0.058918288338248165
0.04542264202887342
0.034420396073610415
0.02563681577597779
0.018768230605875735
0.01350503646583523
0.009551057538161035
0.006637524295180741
0.004531172521975141
0.003037075491685881
0.00199751215788104
0.0012883703359083951
0.0008143895795656434
0.0005041617749570413
0.00030541590704629784
0.00018082665688699007
0.00010442549692613082
5.862174088105294e-05
3.1807799738618254e-05
1.647647333334199e-05
7.602285416241521e-06
3.3004330766194337e-07
8.671283166444126e-10
3.1254547056167004e-07
1.761970772063214e-06
6.428396075096282e-06
1.868703237069254e-05
4.672304356945364e-05
0.00010450212403703587
0.0002141141136826656
0.0004083196259655538
0.0007330549277171242
0.0012496038568108345
0.0020361384729180245
0.0031883660131350093
0.004819094125374687
0.007056628055336311
0.010042027068372966
0.013925356499818565
0.018861162039694956
0.025003453954653528
0.032500516017684354
0.0414898473461635
0.05209350994795936
0.06441409832298041
0.07853147908942566
0.094500377276346
0.11234881932206116
0.13207738660746862
0.15365919092575303
0.17704045586654368
0.2021415750861671
0.2288585179515478
0.25706446241321834
0.28661155122112275
0.317332687879581
0.3490433105438981
0.38154310340721115
0.4146176245992803
0.4480398463532603
0.48157161680100014
0.5149650632164615
0.5479639640945545
0.5803051225529546
0.6117197766851358
0.6419350841976222
0.6706757194199305
0.6976656209931938
0.7226299285270776
0.7452971464335068
0.7654015730025081
0.782686032379384
0.7969049459846665
0.807827777343341
0.815242879170805
0.8189617624429559
0.8188237922381667
0.8147012922692026
0.806505006985928
0.794189824871948
0.7777606077330528
0.7572778985524855
0.7328631976977994
0.7047034107814901
0.673053993483431
0.6382402669916986
0.600656374307364
0.5607614137726333
0.5190724346955081
0.476154206164511
0.4326059453878382
0.3890454652044385
0.34609141239281394
0.30434437564492955
0.264367643077026
0.22666833636847356
0.1916796326478743
0.15974488884847451
0.13110472190432432
0.10588837963790858
0.08411087303924268
0.06567712045958848
0.05039365768097723
0.037987358594842514
0.028129355043228964
0.02046132584177073
0.014620892915495887
0.01026317697336454
0.007076524802467495
0.004791707098567531
0.003185103569609152
0.002077226108614773
0.001328251801159745
0.0008321099702550878
0.0005102767387851977
0.0003059795757157069
0.00017914400602950822
0.00010217657366146502
5.654949619897216e-05
3.005189524424798e-05
1.4266522090517063e-05
6.184537355333833e-07
2.4149778524949265e-09
6.812980812078134e-07
3.6106068794688707e-06
1.2545411477227097e-05
3.500130620415216e-05
8.443286346055003e-05
0.0001828979667578143
0.0003640181545957738
0.0006759473420356585
0.0011839960651135325
0.0019725427049236684
0.003145902874982328
0.0048279182933205446
0.007160152725625914
0.010298724936140488
0.014409945572013482
0.01966503775861273
0.02623429675729945
0.03428107625987728
0.04395597866245092
0.055391580545205286
0.06869795282344857
0.08395914935271784
0.10123074942881351
0.12053845799072246
0.1418776990739478
0.16521408691064948
0.19048462608669026
0.21759947626496584
0.24644411563801819
0.27688174717866965
0.3087558094265252
0.3418924757422621
0.3761030499688792
0.4111861902040003
0.4469299145243032
0.48311336222978535
0.5195083012003519
0.5558803863506347
0.5919901862382371
0.6275940050612261
0.6624445360500892
0.696291390073025
0.7288815505208581
0.7599598125115528
0.7892692713284493
0.8165519318157525
0.8415495170734377
0.8640045609061116
0.8836618735467004
0.9002704733926435
0.9135860777519502
0.923374241458554
0.9294142219005207
0.9315036304279525
0.9294639009837775
0.9231465648264712
0.9124402633646275
0.8972783580861743
0.877646907345801
0.8535926765211456
0.8252307361118539
0.7927510915043224
0.7564236935979448
0.7166011222001507
0.6737182389368545
0.6282881975805018
0.580894392673835
0.5321782191049325
0.4828228764720218
0.43353382658521017
0.38501682946626353
0.33795468131183315
0.29298383357786373
0.2506720180695509
0.21149791928354392
0.17583391187147737
0.143932958881982
0.1159208912623196
0.09179531055202288
0.07143208776544394
0.05459975087162357
0.04098100045432545
0.030199398060985896
0.021848289481984418
0.015518595393926507
0.010822398980350558
0.00741021114371686
0.0049811058438935935
0.003286201838572601
0.0021268925788057776
0.0013496340012488972
0.0008390256913803316
0.0005105346701284202
0.0003037200062328639
0.00017637906926151322
9.971613504381571e-05
5.4364853223447464e-05
2.6495244457404948e-05
1.1444114073434346e-06
6.060392782053465e-09
1.4071740314727682e-06
7.051783310746805e-06
2.3421476084682045e-05
6.288140671994052e-05
0.0001466449478836809
0.0003081635456037398
0.0005966102694736431
0.0010800380758975582
0.0018477645692765022
0.00301157664155207
0.0047054555774118925
0.0070836780390754655
0.01031732474064912
0.014589398444091935
0.02008889154364527
0.027004233943850906
0.03551658669664612
0.04579342778220704
0.05798281278726315
0.07220859899922828
0.08856681219443212
0.10712322579593586
0.12791212393322188
0.15093614126862764
0.17616701729490306
0.20354707164053312
0.23299119750376596
0.26438917867234313
0.2976081568450978
0.3324951052700527
0.36887919766894406
0.40657399448053727
0.445379399041508
0.48508336279932146
0.5254633402120128
0.5662875104900607
0.6073157951047674
0.6483007076559366
0.6889880770456338
0.7291176867772117
0.7684238733938238
0.806636126319342
0.8434797303042925
0.8786764908478616
0.9119455828049842
0.9430045632389502
0.9715705916854918
0.9973619044681411
1.0200995944921534
1.0395097537554079
1.0553260420345467
1.0672927507881838
1.0751684346830293
1.0787301820867181
1.0777785875250603
1.0721434700348564
1.0616903477639295
1.0463276273484021
1.0260143935234758
1.0007685887283237
0.9706752556086462
0.9358943830087865
0.8966677597076977
0.853324118086211
0.8062817673598534
0.7560479031157189
0.7032138664621055
0.6484458328575547
0.5924707384079461
0.5360576717818814
0.47999541366859083
0.42506721338871206
0.372024177835207
0.32155876873084244
0.27427987288445654
0.2306907928224865
0.1911713887551192
0.15596554138041394
0.125175072556207
0.09876114296841061
0.07655378778212825
0.05826954836352976
0.043536145032003926
0.03192201870524582
0.02296767176296156
0.016215374863772752
0.01123414228885238
0.00763784850466515
0.005095687005352256
0.0033354836792903624
0.002141342581000931
0.0013475519158441514
0.0008306308251870742
0.0005010104457530265
0.00029531739931736614
0.00016971121158293484
9.419080035655453e-05
4.665830250239255e-05
2.008714368895675e-06
1.3991016884998e-08
2.7645977959297405e-06
1.3163574893923754e-05
4.19244973798978e-05
0.00010856383962017857
0.00024520567643089363
0.0005006142217152873
0.0009439573134766269
0.001667759554631762
0.0027895416878025935
0.004451765759615202
0.006819891881126219
0.01007856872072811
0.014426189790006488
0.020068219032114542
0.027209800132779592
0.036048204898177644
0.04676564980249704
0.0595229288805866
0.07445419381879465
0.09166307843446818
0.11122023311133183
0.13316221952585197
0.15749162634967695
0.18417820653200945
0.21316080578976743
0.2443498463539342
0.27763014421981697
0.3128638658239398
0.34989346519500325
0.3885444800928699
0.42862810159688247
0.4699434634890434
0.5122796242566352
0.5554172352484431
0.5991299038037148
0.6431852708242117
0.6873458292862252
0.7313695146431393
0.7750101009239603
0.8180174384143447
0.8601375707613534
0.9011127716396623
0.9406815440639693
0.9785786292052101
1.0145350762384007
1.0482784303065953
1.079533102049037
1.108020989159743
1.1334624278708003
1.1555775597113176
1.174088205795874
1.1887203463735836
1.199207306155155
1.2052937442656437
1.2067405391958483
1.2033306408840079
1.1948759305589547
1.1812250804328568
1.162272336138069
1.137967052263604
1.1083236947218909
1.0734318855217237
1.0334659132447783
0.9886929799301032
0.9394793234584229
0.8862932725054867
0.8297042921282062
0.770377194469242
0.709060942909475
0.6465718693920247
0.5837716222190885
0.5215407003592577
0.46074892190940087
0.40222453105665884
0.34672381304449856
0.2949030585698672
0.24729455266109773
0.20428804197327532
0.1661189215789526
0.1328641746185606
0.1044468148529865
0.08064910433344195
0.06113406813738736
0.04547384722353158
0.033182409847716546
0.023749372921831335
0.016671445113825588
0.011478431994034166
0.0077517659118092365
0.005134871261011162
0.0033359899093864534
0.0021250570188910975
0.0013266684742443068
0.0008111307403486161
0.00048517469185309847
0.00028330647662985417
0.00015992631671118046
8.039429603401024e-05
3.447773777564856e-06
3.0097435199240755e-08
5.183234635681099e-06
2.3543337181324644e-05
7.209775196093209e-05
0.00018044089858084447
0.00039535696141815155
0.0007852587228851726
0.0014438220853377787
0.0024921971133991683
0.004079312286391405
0.00638000898708951
0.009591006409549612
0.013924955979354694
0.019603057107507316
0.02684684358719744
0.03586979968812309
0.04686943065542163
0.060020310165143254
0.0754684810578694
0.09332742112810334
0.11367562614978394
0.13655572541332994
0.16197494172239035
0.18990664218026815
0.22029269669654086
0.2530463625251141
0.28805543770126774
0.3251854657830076
0.3642828212282243
0.4051775528100569
0.44768590713116924
0.49161249268512397
0.5367520756639094
0.5828910216282915
0.6298084128574091
0.6772768807707448
0.725063197570872
0.7729286724962483
0.8206293969844731
0.8679163806228818
0.9145356167920231
0.9602281139814902
1.004729926309543
1.0477722151234454
1.089081372936667
1.1283792415743321
1.165383458438097
1.1998079684522684
1.2313637446874388
1.25975976800407
1.284704325336555
1.3059066972683415
1.3230793178258549
1.3359405019588422
1.3442178473460702
1.347652424528357
1.3460038695652539
1.3390564821442086
1.3266264042732123
1.3085699049138095
1.2847927190461648
1.2552602819780623
1.220008560302374
1.179155013380696
1.1329090335497483
1.081581027358276
1.025589140812255
0.9654625336118544
0.9018401099825045
0.835463753645884
0.7671654153164658
0.6978478610472418
0.6284594718342058
0.5599641153520497
0.49330769022339394
0.4293833716963847
0.36899779557284695
0.31284039082930537
0.261457855998258
0.21523544999664923
0.17438640416077184
0.13895037521309864
0.10880139987832718
0.08366519985067351
0.06314487548753735
0.04675307505414452
0.03394781512811637
0.02416851613328498
0.01686873949734886
0.011542669515307333
0.007743478351885435
0.005093079202973851
0.0032840678517428515
0.002075583163991201
0.0012852301566478076
0.0007791105768893434
0.0004614700211212265
0.00026434734456606487
0.00013449583876949659
5.7452713124338985e-06
6.08597062215912e-08
9.299307355710705e-06
4.0430714196513884e-05
0.00011933196857679449
0.00028917398950335365
0.0006155580133726994
0.001190945991658267
0.002137598276451918
0.0036084043519296737
0.005785246717092493
0.008874854014324488
0.013102417024538703
0.018703505498476342
0.025914996439247457
0.03496578835517533
0.04606803530785631
0.05940951000010571
0.0751475270395985
0.09340465865798459
0.11426628478915796
0.1377798593031656
0.1639556570916594
0.19276869661991988
0.22416150644402302
0.258047414226873
0.2943140727837158
0.33282698911836545
0.37343287988817975
0.41596273287803776
0.46023450381766146
0.5060554184222966
0.5532238799293299
0.601531003092056
0.6507618079210352
0.7006961122311359
0.7511091631614784
0.8017720460527336
0.852451905877724
0.9029120129714384
0.9529117018951001
1.0022062103880185
1.0505464447534902
1.0976786987500513
1.1433443550577078
1.1872796015396385
1.2292151986906061
1.2688763397438338
1.3059826508379362
1.3402483854200027
1.3713828747264127
1.3990913048024893
1.4230759001158435
1.4430376042644695
1.458678359175199
1.4697040946611644
1.4758285487100535
1.4767780429609791
1.4722973339768126
1.4621566444754992
1.446159943999992
1.4241544893917863
1.3960415460012991
1.3617880865469505
1.3214391050205572
1.2751299925934112
1.2230982133030983
1.165693310997872
1.1033841072267205
1.0367618527099773
0.9665381168881104
0.8935363805218767
0.8186766587767782
0.7429530207783553
0.6674045415475561
0.5930809394105426
0.5210048058327942
0.4521328142305966
0.3873185206745324
0.3272793206539869
0.2725698418214832
0.22356361135988687
0.18044431420233983
0.14320738918915643
0.11167207568407317
0.08550327967201213
0.0642417647689211
0.04734026475805574
0.0342023339266058
0.02422032536062029
0.016809001609647264
0.011431990445739853
0.007619477358932939
0.004976905422731835
0.0031857071854331297
0.0019979518819217357
0.0012271030400823086
0.0007367550216156619
0.00042783527451570465
0.00022003074082212906
9.359448984233776e-06
1.1641161243369038e-07
1.6003015611992092e-05
6.679094451931671e-05
0.0001904002236171507
0.0004474833471390221
0.0009266982426148398
0.0017485441473013726
0.0030669243743858396
0.0050679440476085885
0.007965824756089401
0.011996205188462573
0.01740742595718931
0.024450616526472815
0.0333694884098868
0.04439069524450969
0.057715472424650124
0.07351305486868442
0.09191613255973001
0.11301837641147036
0.1368738786888417
0.16349821785151455
0.19287078133179056
0.2249379566149327
0.25961682053097745
0.2967990057432874
0.3363544888511825
0.37813511490841345
0.4219777398504232
0.4677069297079308
0.5151372007418431
0.5640748171936261
0.61431918421981
0.6656638847207771
0.7178974125250753
0.7708036530793119
0.8241621584720383
0.877748257929651
0.93133303905797
0.9846832298447723
1.037561007220239
1.0897237549701473
1.140923792015445
1.190908091423664
1.2394180108870498
1.2861890566946559
1.3309507054039627
1.3734263105220097
1.4133331256656776
1.4503824810985178
1.4842801575176219
1.5147270097976975
1.5414199043662982
1.564053047129401
1.5823197942673592
1.595915055203721
1.604538414364161
1.6078981138143764
1.605716049154285
1.5977339314785466
1.5837207527741397
1.5634816537130996
1.5368682238637859
1.50379015801883
1.4642280440899589
1.418246867807425
1.3660095941847246
1.3077899415923397
1.2439832285573105
1.175113984418148
1.1018389196726897
1.024943899707028
0.9453337984214142
0.8640145471218392
0.7820673258118515
0.7006156126748858
0.6207866155943206
0.543669333452846
0.470272013217447
0.40148199514092714
0.33803084651553156
0.28046731204181824
0.22914003623857518
0.18419132460378781
0.14556245828771147
0.11301027290602002
0.08613384899856746
0.06440926169024305
0.047229491923571836
0.03394597527417043
0.023908046195679183
0.016496859405213945
0.01115123947340166
0.007384169845211138
0.0047900080312810196
0.0030436919723302383
0.0018939058614216569
0.0011521011829600273
0.0006775713184963587
0.00035179658381153056
1.4898570965815738e-05
2.116433591316601e-07
2.646818439262052e-05
0.00010631448137622778
0.0002932670947601469
0.0006694782304439646
0.0013505349102936207
0.0024879885300853077
0.004268839875321633
0.006911745743271146
0.010660180647258311
0.015773196254115458
0.022514703175055027
0.0311423200215878
0.041896794616871236
0.05499283207910601
0.07061191142254322
0.08889738816756634
0.10995191118020535
0.13383696104542495
0.16057416312944803
0.19014794531210608
0.22250909128403015
0.2575787714284406
0.29525269782575325
0.3354051313728453
0.3778925535244388
0.42255689258616336
0.4692282585980603
0.5177271889386399
0.5678664388847523
0.6194523693556555
0.6722859908293899
0.7261637211464886
0.7808779086455717
0.8362171633818385
0.8919665300407612
0.9479075279413728
1.0038180770414946
1.0594723244781454
1.1146403839342902
1.1690879998306105
1.2225761496842003
1.2748606005907206
1.3256914393157142
1.3748125996156861
1.421961414919465
1.4668682292526845
1.5092561042650188
1.5488406655265634
1.5853301371302537
1.6184256204230123
1.647821680829384
1.6732073166935693
1.694267396231112
1.7106846631804293
1.722142428221737
1.7283280805470955
1.7289375698613727
1.7236810198641142
1.7122896345234129
1.6945240411242777
1.6701841707101157
1.6391206981618265
1.601247942716785
1.5565579601813877
1.5051353410678159
1.4471719736029138
1.382980757444599
1.313006996191028
1.2378359997588744
1.1581953451874265
1.0749503306184809
0.9890914548399585
0.9017132806012929
0.8139847711255144
0.7271120561803063
0.6422954742945861
0.560683514526722
0.4833268141341415
0.4111355670048482
0.3448435351195555
0.28498137167315224
0.23186124528645094
0.18557389483200804
0.14599831595557095
0.1128233235059895
0.08557927652274816
0.06367734617285054
0.04645295604024404
0.03320957833053623
0.023259077886197868
0.01595533724689593
0.010718922225207381
0.007051870983234707
0.004543019619590954
0.0028652596710215476
0.0017662313096948549
0.0010517327184727187
0.000550928211156839
2.3223971141776057e-05
3.670822788557414e-07
4.2145362321600996e-05
0.0001632816490518904
0.00043658447089047733
0.0009694222264059898
0.0019072840752092184
0.003434253271577658
0.0057698031916396724
0.009162069178942175
0.013878255560524468
0.020193200773931205
0.02837729451549282
0.03868491518440187
0.05134436766951551
0.06655000798320262
0.08445690663282021
0.10517808441458716
0.12878409438396596
0.1553045449011568
0.18473106568749342
0.21702120265102115
0.25210277015346316
0.2898782703335974
0.3302290878263332
0.37301926803427005
0.41809877619699487
0.4653062060397189
0.5144709582809396
0.5654149415126501
0.6179538637919041
0.6718981865707453
0.7270538073953147
0.7832225277914524
0.8402023508892845
0.897787641774866
0.9557691736605762
1.0139340754380564
1.0720656912063362
1.1299433597909208
1.1873421217174815
1.2440323621166418
1.299779400150665
1.3543430383584356
1.4074770884906453
1.458928893736214
1.5084388706199319
1.5557400972881457
1.600557978513645
1.6426100217711785
1.6816057634964146
1.717246890578855
1.7492276097697117
1.7772353275678565
1.8009517158052513