# vtk DataFile Version 4.1 
COMMENT
ASCII
DATASET STRUCTURED_POINTS 
DIMENSIONS 100 100 1 
ORIGIN 0 0 0
SPACING 0.12693303650867893 0.12693303650867893 0 
POINT_DATA 10000
SCALARS U double 1
LOOKUP_TABLE default
0.0
0.0
0.0
0.0
0.0
0.0
0.0
0.0
0.0
0.0
0.0
0.0
0.0
0.0
0.0
0.0
0.0
0.0
0.0
0.0
0.0
0.0
0.0
0.0
0.0
0.0
0.0
0.0
0.0
0.0
0.0
0.0
0.0
0.0
0.0
0.0
0.0
0.0
0.0
0.0
0.0
0.0
0.0
0.0
0.0
0.0
0.0
0.0
0.0
0.0
0.0
0.0
0.0
0.0
0.0
0.0
0.0
0.0
0.0
0.0
0.0
0.0
0.0
0.0
0.0
0.0
0.0
0.0
0.0
0.0
0.0
0.0
0.0
0.0
0.0
0.0
0.0
0.0
0.0
0.0
0.0
0.0
0.0
0.0
0.0
0.0
0.0
0.0
0.0
0.0
0.0
0.0
0.0
0.0
0.0
0.0
0.0
0.0
0.0
0.0
-1.9547164085615523e-12
9.587597750555922e-10
1.0622850959199774e-08
6.027715740494053e-08
2.455254103860585e-07
8.097253682046332e-07
2.2948518537933277e-06
5.787726403492368e-06
1.3287800073751611e-05
2.821415273449582e-05
5.60533973497873e-05
0.00010512764998460566
0.00018743521840832797
0.0003194901008891321
0.0005230643763586758
0.0008257245121275432
0.0012610518470844
0.001868450612288236
0.002692473334648755
0.0037816308248211
0.0051866980738406
0.006958573246752399
0.0091457893919066
0.011791812899223023
0.014932285725274413
0.01859237805513979
0.022784414089698692
0.027505917192842722
0.032738194015826436
0.038445543484306406
0.04457513903970454
0.05105759452854231
0.05780818847932472
0.06472869042238369
0.0717097078938662
0.07863345458779844
0.08537682888288635
0.0918146872326372
0.09782319783082209
0.10328316546690781
0.10808322738251804
0.11212283106251088
0.11531491718725273
0.11758824356022059
0.11888929805367938
0.11918376007531176
0.11845748058845601
0.11671696039249965
0.11398931547236238
0.11032172720720762
0.10578038463835833
0.10044893638837492
0.0944264816258217
0.08782514282735028
0.08076727768841392
0.0733824024649101
0.06580391273041325
0.058165697928489246
0.05059875097538686
0.043227871850305945
0.03616855432569538
0.02952412968193943
0.023383224933153833
0.017817582272035812
0.012880287797114873
0.008604474992341345
0.0050025996462141125
0.0020664173413277947
-0.00023218604229135662
-0.0019393777975443096
-0.003116513736109729
-0.0038362902292252924
-0.004178142460301836
-0.004223282390525657
-0.00404988397551583
-0.0037289439702382614
-0.003321254694630199
-0.002875735607641211
-0.0024291313597986507
-0.0020068600694260084
-0.0016246453465262644
-0.0012905200320815933
-0.001006842980988876
-0.0007720863541020766
-0.0005822812197213142
-0.0004321131182515884
-0.00031571711149482945
-0.00022723686475076697
-0.00016120177843326953
-0.00011275938033896948
-7.778932608388729e-05
-5.292300356452498e-05
-3.549487470125426e-05
-2.3452867537333883e-05
-1.52522818747217e-05
-9.75089579600531e-06
-6.113475522576416e-06
-3.7184575065769652e-06
-2.0119707319303905e-06
-8.777611452972672e-08
-4.026887232312301e-12
3.3522201016745497e-09
3.0044768637051575e-08
1.5050875990788823e-07
5.590840678678473e-07
1.7100196640915949e-06
4.541293342497558e-06
1.0807527067558447e-05
2.3532031631425026e-05
4.756951085744112e-05
9.024718188244284e-05
0.00016202677074763112
0.0002771078443933078
0.00045387911499419507
0.0007151225256536592
0.001087886984176963
0.0016029740365983616
0.0022940136985984123
0.0031961504126721747
0.004344401048727876
0.005771783439175089
0.007507340512580755
0.009574198648010748
0.011987798327649775
0.014754421326768316
0.017870113930237772
0.02132007344721934
0.025078529525759525
0.029109116273880135
0.033365699259998716
0.0377935955399121
0.04233110641117507
0.0469112721354334
0.051463755062755294
0.055916761463650176
0.0601989215312048
0.06424105986753094
0.06797780371841883
0.0713489918085913
0.07430086163105497
0.07678700651228022
0.07876910505383201
0.08021743425257849
0.08111118356811214
0.08143859046576823
0.08119691868924789
0.08039229899460354
0.07903944869269623
0.0771612815894446
0.07478841439751324
0.07195857019334137
0.06871587496870701
0.06511004091505436
0.06119543102345225
0.057030005038272345
0.052674157498826216
0.048189474362994575
0.043637453891316014
0.039078256531291655
0.03456956197123052
0.03016561254772722
0.025916504419240507
0.021867748051074366
0.018060060410994613
0.014529284103750106
0.011306273152204695
0.008416565623242249
0.005879701077853134
0.003708143907968129
0.0019059278669412189
0.0004673035260227425
-0.0006242074116113378
-0.0013959250591592
-0.0018849763797824772
-0.0021360300590127566
-0.0021980159979252518
-0.002120314645003796
-0.001949053959827093
-0.0017241311379009364
-0.0014773872196024334
-0.001232070321254742
-0.0010034264328899107
-0.0008000481742717012
-0.0006255422168827798
-0.0004801390842114136
-0.0003620129703187381
-0.0002682357511548691
-0.0001954043958533904
-0.00014003250357444785
-9.879417439301834e-05
-6.867850632335325e-05
-4.708195039180138e-05
-3.18480617317668e-05
-2.1260941510239824e-05
-1.400293936704936e-05
-9.09101915143527e-06
-5.804336179828508e-06
-3.6024988157285558e-06
-1.9855130783762034e-06
-8.843382954852202e-08
-4.278634534498645e-12
1.0979013084198917e-08
8.665272944656487e-08
4.014081761465732e-07
1.4083633327692744e-06
4.117776322790018e-06
1.0536073078783742e-05
2.429498860613199e-05
5.1478066417711673e-05
0.00010161940088329165
0.00018881129689395928
0.0003328198266625746
0.000560077268994168
0.0009044045759857207
0.0014073196490183668
0.002117809598907174
0.0030914853088125607
0.004389089660142507
0.006074389977710404
0.008211543190698415
0.010862072030552186
0.01408162696677648
0.017916728320792948
0.022401685214315535
0.027555873936607862
0.03338153083446826
0.039862177848292546
0.04696175663568114
0.054624503968298675
0.06277556029275638
0.07132226769688002
0.08015608475501261
0.08915502466034958
0.09818650971895435
0.1071105290977178
0.11578298668990104
0.12405913085971097
0.13179696635216562
0.13886055955613452
0.1451231604691542
0.15047007719522762
0.1548012508740122
0.15803349005173004
0.16010233330165208
0.16096351718126828
0.16059403329756372
0.15899276336439702
0.15618068477871339
0.15220064158484248
0.14711667698186331
0.14101292410530333
0.13399205219316013
0.1261732661960196
0.11768986054776182
0.1086863337713588
0.09931508190597599
0.0897327077172195
0.08009601133864601
0.07055776724781568
0.061262440693020496
0.0523420484190016
0.043912413664987604
0.03607008955392338
0.028890212063990426
0.022425480849343763
0.016706350018411597
0.011742354078965093
0.0075243272753756744
0.0040271420225398945
0.0012125403150366019
-0.0009683090575648136
-0.002572728135509035
-0.0036648931586599036
-0.004314398700419755
-0.004594659827507514
-0.004580826677360084
-0.0043470781036452286
-0.0039634442954034205
-0.0034925748055536637
-0.002987010126869158
-0.0024874701982664847
-0.002022454725940877
-0.0016091394825316497
-0.0012552634199615518
-0.0009615296104782555
-0.0007240292779926929
-0.0005363182460424714
-0.0003909606161253782
-0.00028052937255873
-0.00019816656507933757
-0.00013784394576098275
-9.444734570585546e-05
-6.37666172950867e-05
-4.2434442646038734e-05
-2.7834146276147575e-05
-1.7987627157319603e-05
-1.1430104370753907e-05
-7.0606687376365414e-06
-3.872602043148066e-06
-1.7007115465912553e-07
1.3472807975566348e-11
3.253989684901023e-08
2.3047419863910704e-07
9.916156295876994e-07
3.284214302306003e-06
9.15063555799704e-06
2.2451409734487603e-05
4.986285282220518e-05
0.00010209713002175944
0.00019526037967416488
0.0003522118676921268
0.0006037460304846033
0.0009893994951643672
0.001557693133500287
0.0023656564006942654
0.003477543861344681
0.004962733668865631
0.006892883781273538
0.009338502075894423
0.012365150783415033
0.016029546204965623
0.020375827703548743
0.025432255616644788
0.031208559609509752
0.03769410316186487
0.044856963767057216
0.052643959612847124
0.060981588810551074
0.06977779198760138
0.07892440679034388
0.08830015523029397
0.09777399184313909
0.10720864097494977
0.11646416290242609
0.12540140816860246
0.13388524457537765
0.14178746898379668
0.14898934406028982
0.15538372647869275
0.1608767764676252
0.1653892581019005
0.1688574549344695
0.17123373636826486
0.1724868167603084
0.17260175200281835
0.171579717717539
0.16943760976044406
0.16620750200001133
0.16193598881156002
0.15668343088177816
0.15052311314027958
0.14354031327151692
0.13583126862786715
0.12750201883030257
0.11866709146472353
0.10944799002436324
0.09997143824858294
0.0903673358020616
0.0807663902772905
0.07129741371692128
0.062084311523944204
0.05324284851091066
0.044877346815447534
0.037077542501254564
0.02991588370885944
0.023445570576137505
0.017699595122303936
0.012690928387426926
0.008413833099306963
0.004846088202467688
0.0019517512254637517
-0.00031598661783474136
-0.002012241970225871
-0.0031983885342604184
-0.003940478024635956
-0.004307872125264772
-0.0043717156146855915
-0.004202942554992248
-0.003869726613369677
-0.0034345801828641054
-0.00295155429897756
-0.002464086400841514
-0.002003942313307007
-0.0015914408370225192
-0.0012368351160328636
-0.0009424708905028956
-0.0007052285757434375
-0.0005187994921915335
-0.0003755008968138174
-0.0002675233236374521
-0.00018765785103957747
-0.0001296340571260626
-8.821300226070335e-05
-5.91493763754185e-05
-3.909356953414947e-05
-2.5468298949998427e-05
-1.6329161323474743e-05
-1.0184799301518972e-05
-5.631318762862256e-06
-2.4752920133846897e-07
1.0769577783629312e-10
8.905442422106467e-08
5.764067502142444e-07
2.3252405046467158e-06
7.316387109159168e-06
1.952497928953598e-05
4.614128728028316e-05
9.911321982156541e-05
0.000196916986905013
0.0003663894318903891
0.0006443957688324302
0.0010790739844257142
0.0017304014498217184
0.002669872949446219
0.003979157579263455
0.005747703741614159
0.008069371865148544
0.011038277749898595
0.014744111821188203
0.019267251447201733
0.024674000440583505
0.031012272784342865
0.0383079917414505
0.04656240902285001
0.05575047111433128
0.06582028051104226
0.07669362640948042
0.08826749817715894
0.10041644908644524
0.11299564850688709
0.12584444724505828
0.1387902808762321
0.15165274679369864
0.16424770908067643
0.1763913080737253
0.1879037759221231
0.19861298339991562
0.20835766515101692
0.21699028947783086
0.22437955425360667
0.23041250247121234
0.23499625953513253
0.2380594000291855
0.23955295480461353
0.23945107030769988
0.23775133156007094
0.2344747585377068
0.22966548324808378
0.22339011193513764
0.2157367738998554
0.2068138557743507
0.19674841811489724
0.1856842902822283
0.17377984013411693
0.16120541738175936
0.14814047377933903
0.13477036977474474
0.12128288604848929
0.10786446999753505
0.09469626276031037
0.08194997367474739
0.06978369847793457
0.058337816973772286
0.04773115479668092
0.03805764687838883
0.029383784928768465
0.021747148376392945
0.0151562852482316
0.009592108627216083
0.0050108032928182005
0.0013480182577182904
-0.0014760969133046766
-0.003551605318985432
-0.004973863091220627
-0.0058394541823692915
-0.0062432069137450625
-0.006276208920334088
-0.006024483726067399
-0.005567890608601837
-0.004978897463092345
-0.004321113683528793
-0.003647751941096106
-0.0030003904295931886
-0.0024084437214099636
-0.0018896091164134776
-0.001451301626649331
-0.001092832388843115
-0.0008079210702643735
-0.000587110582734997
-0.0004197564902756676
-0.00029543306246562073
-0.00020476197750500825
-0.00013977851686036575
-9.398921542942922e-05
-6.225934076663082e-05
-4.0625394387822596e-05
-2.607649161746355e-05
-1.6276737418320242e-05
-8.997390543802087e-06
-3.936668576343248e-07
4.538137902814594e-10
2.2732419930960924e-07
1.3610944511250514e-06
5.1806088008089204e-06
1.5546166029376126e-05
3.983802269013465e-05
9.083543564852163e-05
0.00018893270292861243
0.0003644869662316316
0.0006600053926101907
0.0011318279478173584
0.0018509611098575535
0.0029027725585483574
0.004385361231510053
0.006406555886591731
0.00907964728511489
0.012518101670831725
0.016829616511904885
0.02210994961574065
0.02843697344485636
0.03586537911396749
0.04442238682983627
0.054104723362180675
0.06487701624696034
0.07667164218519734
0.08938996480594111
0.10290481281210387
0.11706398826509037
0.13169455785676296
0.1466076662244082
0.1616036164998091
0.17647698501983924
0.19102156972060494
0.2050350106091271
0.21832296183529504
0.23070273503743097
0.24200637043584944
0.25208312405900724
0.26080138568948924
0.2680500623760792
0.2737394768636985
0.27780183951564424
0.28019135686765706
0.2808840405415387
0.27987727752028424
0.2771892173456823
0.27285802415302396
0.26694103202418173
0.2595138312610281
0.250669301152925
0.24051659193554054
0.22918004527945923
0.21679802930423153
0.20352165147910467
0.1895133017716141
0.17494497019834013
0.15999627885924314
0.1448521700272919
0.12970020033169913
0.11472740784491352
0.10011674520314512
0.0860431089326783
0.07266904389831538
0.06014026245331179
0.04858118862767654
0.038090812675929266
0.02873920847098714
0.020565106426777155
0.013574903679299569
0.007743408393152347
0.0030164453863751827
-0.0006847919516263738
-0.0034580312769111293
-0.005413476342387346
-0.0066673761405583705
-0.007336316576714745
-0.007532732664254773
-0.007361814197465569
-0.006919641864574987
-0.006292157915006039
-0.005554522594564566
-0.004770538725126915
-0.003992069674458502
-0.0032586139178014924
-0.0025973251542953436
-0.0020237308680244484
-0.0015432311016551736
-0.00115323736761841
-0.0008456364856410018
-0.0006092008525307478
-0.00043162430150794613
-0.00030100048319925903
-0.00020671561891873162
-0.0001398457934410816
-9.320520558379845e-05
-6.118887202351987e-05
-3.950505209689901e-05
-2.478527634038433e-05
-1.3741696628400703e-05
-5.99589886702997e-07
1.5137081184159525e-09
5.454528091567517e-07
3.049303107319669e-06
1.1008722176009042e-05
3.1617273929040704e-05
7.800263544148384e-05
0.00017195641169820089
0.00034691685462087424
0.0006508400801370837
0.001148515845661194
0.0019228719403501246
0.0030748755468991843
0.004721773558794507
0.006993595976868156
0.01002804762587272
0.01396410180140755
0.018934757456803154
0.025059510298492967
0.032437109838303474
0.041139132092969835
0.05120480304984878
0.06263737859147152
0.07540224162205779
0.08942673480874257
0.10460162228354856
0.12078397572655922
0.1378012142979621
0.15545599419719178
0.17353163895752696
0.19179782038138152
0.210016235630513
0.2279460716750596
0.2453490980228493
0.26199427748565846
0.27766182912384496
0.2921467152081269
0.30526155398682525
0.3168389821285239
0.3267335054806674
0.334822885224778
0.3410091098064186
0.34521900239779146
0.34740451025550495
0.34754271715181123
0.34563561387771924
0.34170965523366087
0.33581512534178387
0.32802532677316665
0.31843560298953094
0.3071621979601634
0.29434095147775247
0.2801258235896053
0.2646872366401092
0.24821021872698742
0.23089232809360638
0.21294133450242664
0.19457263160003946
0.17600635459528555
0.15746418136784768
0.13916580371413662
0.12132507021589221
0.1041458245957196
0.08781749476430038
0.07251052922614716
0.058371829603270434
0.04552038959892875
0.03404341721241325
0.023993278412336342
0.015385639865557568
0.008199182820342257
0.0023771859526914856
-0.002168883649598907
-0.005553870690808301
-0.007911907235022709
-0.009388516552722314
-0.010132673105850924
-0.010289660973897453
-0.009995401179444228
-0.009372595041702323
-0.008528647851418816
-0.007555013903638111
-0.006527439767993402
-0.005506615201825244
-0.004538929418169647
-0.0036572744115705752
-0.0028820241586393703
-0.0022223746582732268
-0.0016781489723571561
-0.0012420105800299262
-0.0009018727982857454
-0.0006432121821714806
-0.00045101574212867636
-0.0003111937583292549
-0.0002114217796007489
-0.00014148609354037924
-9.326393180218247e-05
-6.045646622511075e-05
-3.806637064793845e-05
-2.1142309831856746e-05
-9.190937536112009e-07
4.388119497804027e-09
1.2375445806021343e-06
6.506213700989223e-06
2.237551745623122e-05
6.168504243952144e-05
0.0001468308544577783
0.00031348082831598214
0.000614275659205453
0.001121947240094285
0.0019312519052047923
0.003159186323674752
0.004943121587080572
0.0074367288945064395
0.010803837583995439
0.015210618761656766
0.020816686642758257
0.02776582851331592
0.03617710218202424
0.0461369815159538
0.05769310294799257
0.07084999296282435
0.08556696508987083
0.10175818932420519
0.11929477640258616
0.1380085964217486
0.1576974713730801
0.1781313436902258
0.19905902274439605
0.22021514048584215
0.241326997109373
0.262121038923412
0.2823287758735032
0.301692009412586
0.3199672984329829
0.33692963929710096
0.352375374582908
0.36612437404876
0.3780215513144615
0.3879377920712138
0.3957703756620308
0.40144297298962267
0.404905301146846
0.4061325099589645
0.4051243685844403
0.4019043120287122
0.3965183982747354
0.3890342169547945
0.3795397801885497
0.36814241542079906
0.3549676688012706
0.34015821586011324
0.3238727640083415
0.3062849189074184
0.28758197435116734
0.2679635735568999
0.24764017951498504
0.22683128444115983
0.20576328484753342
0.1846669509530275
0.16377442883602747
0.14331573252291985
0.12351471238861676
0.1045845265288677
0.08672269311337197
0.07010586322040605
0.05488452323494041
0.041177909810342514
0.029069492112525037
0.018603434796332616
0.009782484746928829
0.0025677041538510075
-0.003119619678237824
-0.007393735544278106
-0.010397968663160041
-0.012296459371144836
-0.013264820985672393
-0.013480650813573419
-0.013114880009584584
-0.012324800823337792
-0.011249284851108678
-0.010006285564444878
-0.008692322206770025
-0.007383383256198109
-0.006136627705732716
-0.004992387044379437
-0.003976198673376368
-0.0031008231654232506
-0.00236832537204597
-0.0017723019346005437
-0.0013002462627314537
-0.0009359248256854526
-0.000661562915209053
-0.0004596390287913995
-0.00031415786033841647
-0.0002113751974792237
-0.00014003612063160034
-9.121062882982484e-05
-5.767185383713533e-05
-3.2099758792094084e-05
-1.3904450880516772e-06
1.1493601000697621e-08
2.6676920285466774e-06
1.3265512804315517e-05
4.36155471937564e-05
0.00011571036393780425
0.0002662579066473349
0.0005513825697260451
0.001050774822023129
0.0018705032806848123
0.003143771783162887
0.005029109167292283
0.007705786016345254
0.011366605142355221
0.016208549184694523
0.02242203470377214
0.030179680241391796
0.03962553099122672
0.05086560181007767
0.0639604273152418
0.07892007693032815
0.09570184086502039
0.11421055345840153
0.13430131851446597
0.15578425276554636
0.17843077413327668
0.2019809284378304
0.2261512631206344
0.2506428075269979
0.27514879346156146
0.2993618350006399
0.32298037282901865
0.3457142681447922
0.3672894995873133
0.3874519712376543
0.4059704800099266
0.42263891759483047
0.437277797319863
0.449735202078247
0.45988724816734505
0.4676381536346215
0.4729199904288195
0.4756921888080511
0.47594085120440105
0.4736779218787406
0.4689402487096786
0.4617885645871025
0.4523064081640179
0.440598997046272
0.4267920606366923
0.41103063448179616
0.39347781272538385
0.374313449765911
0.35373279608465474
0.3319450461930809
0.30917176865060736
0.285645179316123
0.2616062099935478
0.23730231647463115
0.2129849642748093
0.18890672922412408
0.16531795602254368
0.14246293351791312
0.12057557315648601
0.09987461838909877
0.08055846818526646
0.06279976599571743
0.046739983304129325
0.03248430865620948
0.020097229937285396
0.009599256887312231
0.0009652551395958424
-0.00587516824289743
-0.011034894944149836
-0.014664003959424594
-0.016942099621864753
-0.018068729677092814
-0.01825268430079451
-0.01770119895526512
-0.016610152074715848
-0.015156209757452854
-0.013491537508578443
-0.01174124946131061
-0.010003316724838066
-0.008350328718506638
-0.0068323714015752724
-0.0054803589550674195
-0.0043093654074298675
-0.0033217467465572453
-0.0025100275841839765
-0.0018596010181332165
-0.0013512656155876426
-0.0009635505830124984
-0.0006747192017467122
-0.00046433004403937295
-0.00031427808893657927
-0.00020930241449065422
-0.00013696793216093608
-8.694649991900003e-05
-4.848320422374614e-05
-2.091969704030965e-06
2.7773038830973866e-08
5.485452124724294e-06
2.59215454758837e-05
8.172939639373129e-05
0.00020911961426753865
0.00046597389425209187
0.0009372841836104315
0.0017391490867558806
0.003020364407984742
0.004960885933495324
0.007766831065652796
0.011662147371072068
0.01687752465025946
0.023637485622356513
0.03214680553078537
0.04257746115801489
0.05505720408122408
0.06966062487401446
0.08640327170747557
0.10523905903001411
0.1260608946202757
0.1487041996503889
0.17295281574317636
0.19854669101701736
0.22519070833413818
0.2525640503910155
0.2803295710508717
0.3081427429255964
0.33565986192326575
0.3625452977235278
0.38847767611520434
0.4131549596760467
0.4362984553691483
0.45765582162785995
0.4770031753385644
0.4941464136092852
0.508921869418003
0.5211964171247441
0.5308671359780676
0.5378606292121492
0.542132084643693
0.5436641508737946
0.5424656918982165
0.5385704724264073
0.5320358165671606
0.5229412736645042
0.5113873167765487
0.4974940913528959
0.4814002238394272
0.4632616919873973
0.44325075035326617
0.42155489566951315
0.3983758473226812
0.37392850805595057
0.3484398593137253
0.3221477346556711
0.2952994039574273
0.2681498916269628
0.2409599451951867
0.21399356827875762
0.18751503641038073
0.16178532822975744
0.13705793064982777
0.11357401699819067
0.09155705287496105
0.07120695502820268
0.05269401125018609
0.036152858933762355
0.02167690844306601
0.009313673637671245
-0.0009384788624621614
-0.009131645553918098
-0.015367310543866733
-0.019792562925388366
-0.02259352113247812
-0.023986187066555566
-0.02420530465464332
-0.0234921302180106
-0.022082256329155545
-0.02019469188772238
-0.018023246380910338
-0.015730908647261344
-0.013447424643390337
-0.011269783331045204
-0.009264938985744804
-0.007473917487341751
-0.005916490123738594
-0.004595796944986111
-0.0035025651075255675
-0.00261879793807039
-0.0019209471743202955
-0.001382616972155251
-0.0009768196834928718
-0.0006777612031838437
-0.00046211465400324166
-0.000309746070455487
-0.00020382346845624372
-0.0001299495305457688
-7.259616607777236e-05
-3.1198254191285645e-06
6.272226370068453e-08
1.0796230419494977e-05
4.8671844087291845e-05
0.00014754956683879695
0.0003648269944442919
0.0007884203150940136
0.001542325281177913
0.0027894440997952652
0.0047306645839991
0.007599660609279131
0.011653481953600522
0.01715959852888682
0.024380549632222057
0.03355764626957014
0.0448952510498707
0.05854702676281873
0.07460524705900794
0.09309386583347166
0.11396561538984232
0.13710300812470233
0.16232279651766515
0.1893832259490465
0.2179932997395359
0.2478232562825221
0.2785155149340691
0.3096954566722685
0.34098154361832156
0.37199442758041723
0.4023648359082385
0.4317401425544869
0.45978962775521176
0.4862084996942465
0.5107207974185257
0.5330813194848572
0.5530767315933547
0.5705260031879376
0.5852803117107073
0.5972225372726472
0.606266452583694
0.6123556949660408
0.615462590397049
0.6155868845029988
0.6127544225616313
0.6070158098978965
0.598445075417306
0.5871383541480754
0.5732125992276836
0.5568043294090051
0.5380684144908376
0.5171768976936163
0.494317850479254
0.46969425121387304
0.4435228739518696
0.41603316707018995
0.3874660931866203
0.358072891621553
0.3281137127771907
0.2978560608226174
0.26757296818611787
0.23754081446920364
0.20803669615740497
0.17933525521794125
0.15170488804427631
0.12540328484603985
0.10067229633452192
0.07773219067743631
0.05677544804062244
0.03796033835787203
0.021404632529665735
0.0071798967010794626
-0.004693101140556296
-0.014247300884399813
-0.02157001961197523
-0.02680091380203655
-0.03012694663550688
-0.03177434237296773
-0.03199785308402189
-0.031068037652706517
-0.029257592493977618
-0.026827997816022
-0.024017780291436024
-0.02103350458257638
-0.01804420984012159
-0.015179481185914546
-0.012530811140734004
-0.01015548834208002
-0.008082039945861886
-0.00631627202444844
-0.004847150822130744
-0.0036520526655623325
-0.0027011817192015984
-0.001961144079626126
-0.0013977545159794688
-0.0009781613952025213
-0.0006723457896772702
-0.0004540035442232051
-0.0003006999736289958
-0.00019270290897947746
-0.0001079004422245665
-4.617438552462931e-06
1.335787739535635e-07
2.0398965555209063e-05
8.802486402450076e-05
0.00025715947474793337
0.0006155120828102022
0.001291856173419285
0.002460615056614769
0.004342046686105932
0.007197195640231042
0.011317548832916862
0.017010123515987855
0.024579376887791084
0.03430774396755353
0.046436733493660794
0.06115035201400163
0.07856224485017682
0.09870742823815452
0.12153893465611625
0.14692918582444026
0.17467550398463827
0.20450890272197308
0.2361051685871335
0.269097238695301
0.30308796936719024
0.337662543667175
0.3723999493186887
0.40688314595402664
0.44070771217149435
0.47348890617855405
0.5048671834171371
0.5345122903281647
0.5621260987724441
0.5874443660742783
0.6102376074091547
0.6303112563163912
0.6475052706738235
0.6616933196275302
0.6727816646838526
0.6807078273559616
0.6854391174582316
0.6869710807482623
0.6853259120664873
0.6805508700807154
0.6727167217371234
0.6619162380456494
0.648262757412932
0.6318888279709932
0.6129449359017766
0.5915983223612293
0.5680318870473238
0.5424431715449987
0.5150434101301277
0.4860566295208265
0.4557187719046375
0.42427680722126826
0.39198779097087066
0.3591178127174271
0.3259407682099926
0.2927368753362653
0.2597908422582874
0.22738958713733387
0.19581940575337864
0.16536248973582943
0.13629271815571786
0.10887068284571205
0.08333796597600032
0.05991076806203675
0.038773083598128366
0.020069733895965905
0.003899682148363518
-0.009689840264310093
-0.020707792633815555
-0.029221740327499454
-0.035357642747621806
-0.03929656099931531
-0.04126805881771584
-0.041540386421267846
-0.04040791668272509
-0.038176696134275136
-0.035149308553343396
-0.03161044626761693
-0.027814576696937692
-0.023976849530677687
-0.02026794020967244
-0.016812953539932805
-0.013693942062814617
-0.010955154439283214
-0.008609908252958584
-0.006648001355648556
-0.005042788702385045
-0.0037573638394051106
-0.002749594122886689
-0.0019759922364177645
-0.0013945346370923574
-0.000966568822516526
-0.0006578971831289799
-0.0004389166978314949
-0.0002829339783279121
-0.00015886087160515243
-6.768404312378761e-06
2.700503484444035e-07
3.709955256952413e-05
0.00015366892326551212
0.0004335051338283374
0.0010059758823889088
0.0020531492651013673
0.003811760050185784
0.006568865598646007
0.010650882658627174
0.016406741950051207
0.024186799321120205
0.034319735317200145
0.047089878637749785
0.06271721113519853
0.08134183182286267
0.10301399525825355
0.12769012546216976
0.15523455302203037
0.1854262095664699
0.21796918055606948
0.252505868382292
0.28863152980762324
0.32590908516594297
0.36388330601940255
0.40209373020865113
0.44008589340505844
0.47742067970681196
0.5136817663307173
0.5484812638919182
0.5814637357767412
0.6123088237001645
0.6407327198728585
0.6664887179198011
0.6893670527257231
0.7091942103016763
0.7258318575267345
0.7391755115978647
0.7491530422332702
0.7557230770638685
0.7588733623930902
0.7586191172988884
0.7550014083219326
0.7480855640609749
0.7379596432226493
0.7247329654646271
0.7085347112448057
0.6895125944604622
0.6678316096280986
0.6436728534689903
0.6172324188025128
0.5887203563766263
0.5583596974159426
0.5263855259264181
0.4930440847941768
0.4585918930566359
0.42329484303052733
0.3874272349874204
0.35127069374964637
0.315112896331508
0.27924602358469275
0.24396483355572637
0.20956424272863874
0.17633629730435774
0.144566424770276
0.11452888120065607
0.08648135652561877
0.06065877141609711
0.03726639567511158
0.01647253532706827
-0.001598834699094853
-0.01687498710410025
-0.029340294346402986
-0.039040335838389256
-0.04608357692626556
-0.05064001811080967
-0.05293639313459851
-0.05324777550096471
-0.051885819838948966
-0.049184280622202016
-0.04548285669621016
-0.04111072959157977
-0.036371318016562355
-0.0315297008052254
-0.026803848765193608
-0.02236029245618043
-0.018314233743142363
-0.014733513589860097
-0.011645403386342672
-0.009044976414268865
-0.006903856798060991
-0.005178384247524926
-0.0038165781553656866
-0.002763630207417296
-0.0019659213475093935
-0.0013737044589534346
-0.0009425882306172255
-0.0006336779936546485
-0.00041111330488349324
-0.00023157275255318314
-9.821253035995153e-06
5.2093467010789e-07
6.51008230574774e-05
0.0002594708325601211
0.0007080809531727596
0.0015953068696884973
0.0031698255797367523
0.005741786921509645
0.009671786796675776
0.015352281667979598
0.023183315452457012
0.033545280013738556
0.04677176959258108
0.06312541374927017
0.08277898227843952
0.10580321051086511
0.13216187167335638
0.16171377926546165
0.19422074502875072
0.22936010062517528
0.2667402171066435
0.3059174917679684
0.34641346157179
0.38773098386228616
0.4293687411641854
0.47083363198355216
0.5116508729709442
0.5513718433233687
0.5895798456883143
0.6258940435665722
0.6599718729779017
0.6915102278637435
0.7202456962448944
0.7459540879645205
0.7684494531790079
0.7875827494950184
0.8032402784879977
0.8153419811686902
0.8238396573346292
0.828715155293704
0.8299785652926642
0.8276664410126586
0.8218400675744716
0.8125837906074015
0.8000034182385336
0.7842247057188505
0.765391930382496
0.743666562469529
0.7192260348985535
0.692262612312361
0.6629823566425936
0.6316041830563439
0.598358996427034
0.5634888943070608
0.5272464175617732
0.48989382403454235
0.451702353442131
0.4129514427083854
0.3739278397737897
0.3349245504601977
0.29623953759199323
0.2581740753825513
0.22103064718577226
0.18511026435530112
0.15070908259794402
0.11811420522073351
0.08759859571781792
0.05941508016737488
0.03378950577335529
0.010913234850823022
-0.009064712123392158
-0.026045406727693725
-0.03998706222127526
-0.050910682835925376
-0.058903562513113156
-0.06411991218553599
-0.06677802324083384
-0.06715361202954616
-0.06556933042267835
-0.06238084476434918
-0.05796033190773222
-0.052678647755617945
-0.04688771075154366
-0.04090473502644566
-0.03499979700712372
-0.02938782392832964
-0.024225509270023222
-0.019612996413191742
-0.015599561849359778
-0.012192096290283382
-0.009365001939011585
-0.007070204345663333
-0.005246258785547984
-0.003825913117767605
-0.0027418628009033487
-0.001930706209156664
-0.0013351863761728285
-0.0009044694281391333
-0.0005906459206345407
-0.00033380705364799673
-1.4089897565410109e-05
9.628724690891247e-07
0.00011045875297421257
0.00042454003784269333
0.0011225153056237365
0.002458527869240403