# vtk DataFile Version 4.1 
COMMENT
ASCII
DATASET STRUCTURED_POINTS 
DIMENSIONS 100 100 1 
ORIGIN 0 0 0
SPACING 0.12693303650867893 0.12693303650867893 0 
POINT_DATA 10000
SCALARS U double 1
LOOKUP_TABLE default
0.0
0.0
0.0
0.0
0.0
0.0
0.0
0.0
0.0
0.0
0.0
0.0
0.0
0.0
0.0
0.0
0.0
0.0
0.0
0.0
0.0
0.0
0.0
0.0
0.0
0.0
0.0
0.0
0.0
0.0
0.0
0.0
0.0
0.0
0.0
0.0
0.0
0.0
0.0
0.0
0.0
0.0
0.0
0.0
0.0
0.0
0.0
0.0
0.0
0.0
0.0
0.0
0.0
0.0
0.0
0.0
0.0
0.0
0.0
0.0
0.0
0.0
0.0
0.0
0.0
0.0
0.0
0.0
0.0
0.0
0.0
0.0
0.0
0.0
0.0
0.0
0.0
0.0
0.0
0.0
0.0
0.0
0.0
0.0
0.0
0.0
0.0
0.0
0.0
0.0
0.0
0.0
0.0
0.0
0.0
0.0
0.0
0.0
0.0
0.0
1.5807933472024795e-13
-7.753559888968932e-11
-9.851463366011034e-10
-6.181685144828917e-09
-2.7505725458090337e-08
-9.844478894074966e-08
-3.014619918819229e-07
-8.187686036435954e-07
-2.0188259541278274e-06
-4.593006643467738e-06
-9.75740519304451e-06
-1.9532972974312235e-05
-3.711242260014599e-05
-6.731459276769796e-05
-0.00011711661048325964
-0.00019624219450147846
-0.00031777219773715545
-0.0004987325955569732
-0.0007606071674720224
-0.0011297183824087093
-0.0016374212829237955
-0.0023200616623824423
-0.003218661104269607
-0.004378306517895252
-0.00584723927704736
-0.007675657365207089
-0.009914261475160432
-0.012612591410861011
-0.015817211325820136
-0.019569810635876227
-0.023905291615319
-0.028849914862230392
-0.034419570457570985
-0.04061823642405961
-0.047436677821067356
-0.05485143032588465
-0.06282410223363644
-0.07130101912851447
-0.08021322655488065
-0.08947685819072952
-0.09899387046210607
-0.10865313922993618
-0.118331909973063
-0.12789758949719918
-0.1372098642306805
-0.14612312716181233
-0.15448919192230126
-0.16216026790793706
-0.16899216415652338
-0.17484768154341776
-0.17960014238451544
-0.18313699358651836
-0.185363404085174
-0.18620575973460593
-0.18561493960781106
-0.18356923772821257
-0.18007677488727672
-0.17517722830575083
-0.1689426951784205
-0.16147750343270748
-0.15291679449619325
-0.14342373489956217
-0.13318527294528307
-0.12240644881425447
-0.11130339233437575
-0.10009529524643555
-0.08899580649093225
-0.07820444116475968
-0.06789868086831337
-0.05822744177546159
-0.04930647758931566
-0.041216073208036295
-0.0340011062570554
-0.02767326542817713
-0.022214980786594972
-0.01758449037640006
-0.0137214552292362
-0.010552619541920088
-0.007997146584461459
-0.00597139218265672
-0.0043929727908814
-0.0031840394083153347
-0.002273700675569488
-0.0015995740897011466
-0.0011084982713241004
-0.0007565071776280395
-0.0005082296810975282
-0.00033591350507050925
-0.00021827006535533086
-0.00013930078675359996
-8.72119237148569e-05
-5.3472166397519006e-05
-3.202789441360269e-05
-1.866838763991275e-05
-1.0524148109067556e-05
-5.679712767121709e-06
-2.8830563695810993e-06
-1.333640992508112e-06
-5.213835461284763e-07
-2.274636560690862e-08
2.817706309199361e-13
-2.3497125572123705e-10
-2.3359801418036746e-09
-1.2825639704086535e-08
-5.193465993043122e-08
-1.7252491519190206e-07
-4.961443853968237e-07
-1.2752576524134872e-06
-2.991888525016933e-06
-6.502561262712374e-06
-1.3236952048530359e-05
-2.545280391719674e-05
-4.6542621364353196e-05
-8.137915570425419e-05
-0.00013667785530667854
-0.00022134666145154353
-0.00034678814185705166
-0.0005271170564352091
-0.0007792586458810104
-0.0011228992269708474
-0.0015802704733660928
-0.0021757609690029062
-0.0029353618466046575
-0.003885966084288621
-0.005054551976319643
-0.0064672893711152125
-0.008148611844454045
-0.01012029886089328
-0.012400609401863584
-0.015003503070945187
-0.01793797711551483
-0.021207539022445057
-0.02480982523852466
-0.02873636792060228
-0.032972504064687345
-0.03749741533721957
-0.04228428268300631
-0.04730053738545441
-0.05250818963395405
-0.05786421663173934
-0.06332099460650702
-0.06882676247956647
-0.07432610910923114
-0.07976048065647001
-0.08506870944274919
-0.09018757041008442
-0.09505237568658322
-0.09959762154239382
-0.10375770492260451
-0.10746772849560216
-0.11066441349721519
-0.11328713834787345
-0.11527911787778351
-0.11658873285649624
-0.11717101222407542
-0.1169892606858851
-0.11601681161197772
-0.11423886848148587
-0.11165437594749517
-0.10827783227772561
-0.10414091740576964
-0.09929376624658852
-0.09380567063685863
-0.0877649565930253
-0.08127777413520527
-0.07446557586483091
-0.06746116600981837
-0.060403379413716506
-0.05343068345563441
-0.046674241929925746
-0.04025117398054367
-0.03425881492284542
-0.028770692717180676
-0.02383467355553986
-0.019473358271399385
-0.015686427514308553
-0.012454346865100737
-0.009742729442781246
-0.0075067252724874125
-0.005695008694316486
-0.0042531724246655175
-0.0031265191988585645
-0.00226232231422754
-0.0016116149125104862
-0.0011305150867948
-0.000781056796702754
-0.0005315071881558364
-0.00035620467417098504
-0.00023501840243134728
-0.0001525743635895065
-9.739812103357774e-05
-6.109276764326497e-05
-3.762191982648671e-05
-2.2721921794487222e-05
-1.3437373481914564e-05
-7.761177267950668e-06
-4.358509800737852e-06
-2.3535278326802998e-06
-1.1372063486609212e-06
-5.000914941159242e-08
2.439377527122492e-13
-6.289999720601676e-10
-5.529403519646545e-09
-2.840589406421549e-08
-1.1013232002554358e-07
-3.54598388445419e-07
-9.957633226764833e-07
-2.511777842641393e-06
-5.804030156082682e-06
-1.2458467558731913e-05
-2.5102683366991464e-05
-4.7864682895686025e-05
-8.692827613830704e-05
-0.00015116672286048707
-0.00025282218950853765
-0.0004081856899358085
-0.0006382223724166765
-0.0009690818282642264
-0.0014324334677336974
-0.0020655731288012538
-0.0029112584051198495
-0.004017245534987725
-0.005435518508197983
-0.007221219582775352
-0.009431307992158902
-0.01212298886369299
-0.015351966251216771
-0.019170582144099085
-0.023625907223709927
-0.02875784924223753
-0.034597341727087935
-0.041164669974922685
-0.0484679837791639
-0.05650203781223553
-0.06524719176431171
-0.07466869381257103
-0.08471626320805435
-0.09532398102487093
-0.10641049258322904
-0.11787952077280839
-0.12962068639758773
-0.14151062957811672
-0.15341442494806723
-0.16518728257168755
-0.17667652583652907
-0.1877238366429511
-0.19816775657751937
-0.20784642994652464
-0.2166005700646873
-0.22427662356070868
-0.23073009825931456
-0.23582900816513463
-0.23945737422208604
-0.2415187023057183
-0.241939341382406
-0.24067160671463178
-0.2376965378689614
-0.23302615195006587
-0.22670505155296455
-0.21881125580985267
-0.20945614079442826
-0.19878339880793364
-0.18696694880781892
-0.17420774652443644
-0.1607294505797146
-0.1467729063384181
-0.13258942910642718
-0.11843292765417525
-0.10455103186426425
-0.09117558272380817
-0.07851308630311873
-0.06673596607321357
-0.05597558327044643
-0.04631794802424489
-0.03780277010310507
-0.03042602521662932
-0.024145647017576728
-0.018889451426133106
-0.014564105774562686
-0.01106394955881685
-0.008278733721951226
-0.006099758747229002
-0.004424307463600859
-0.003158562775095361
-0.0022193235251025496
-0.001534812682295999
-0.0010447871674889378
-0.0007000832308478404
-0.00046170415106892333
-0.0002995729662043769
-0.0001911004295861544
-0.00011972616311677376
-7.35664461702783e-05
-4.425355213666478e-05
-2.59981111011597e-05
-1.4864465159528965e-05
-8.2257859787701e-06
-4.3532383040374026e-06
-2.0547095952299607e-06
-9.030763656562383e-08
-5.769683670873116e-13
-1.3900676220476735e-09
-1.110452107441342e-08
-5.390946247430715e-08
-2.0082016431474999e-07
-6.26517893395539e-07
-1.7128824365238085e-06
-4.218705344164884e-06
-9.535677059004862e-06
-2.0046607735797865e-05
-3.959294793774387e-05
-7.404537769519024e-05
-0.00013195492115426364
-0.00022524496645597226
-0.0003698894327732748
-0.0005865117735056864
-0.0009008356035610518
-0.0013439215839467264
-0.0019521367175210282
-0.0027668202042099867
-0.003833632376616287
-0.005201597369694645
-0.006921873353570223
-0.009046303952368847
-0.011625819052816615
-0.014708761508132003
-0.0183392180026293
-0.022555428023680185
-0.02738833551903887
-0.032860334789431546
-0.03898424702032702
-0.04576254809848113
-0.05318685331294497
-0.06123765125711384
-0.06988426846102264
-0.07908503840750097
-0.08878764375419446
-0.0989295986977311
-0.10943883921056544
-0.1202343919834613
-0.13122709789375975
-0.14232037225862912
-0.1534109916087096
-0.16438990484711966
-0.1751430750869285
-0.1855523668463374
-0.19549650127225598
-0.20485210925964617
-0.21349491824727349
-0.2213011124815655
-0.22814890786659997
-0.2339203802028016
-0.23850357856175403
-0.24179494261679663
-0.24370202298951474
-0.24414647662201402
-0.2430672753091869
-0.2404240266448824
-0.23620026618921497
-0.23040654255133874
-0.22308308886081624
-0.21430185948667804
-0.20416771187196822
-0.19281852792369633
-0.18042409169352452
-0.1671835634200345
-0.15332141231868746
-0.13908170036614673
-0.12472066862017012
-0.11049769668521728
-0.09666490921024529
-0.08345598875989993
-0.07107507614601198
-0.05968690576371986
-0.049409419819549556
-0.0403099378417131
-0.0324055036640767
-0.025667369059507054
-0.020028868801935548
-0.015395397802941363
-0.011654974376870554
-0.008688012543876475
-0.006375350941855722
-0.004604128038562309
-0.003271571747841866
-0.0022870660623038287
-0.0015729446638139608
-0.0010644011297138872
-0.0007087907907141601
-0.0004645061293634379
-0.00029956541629073556
-0.00019005019479028745
-0.00011853005389813984
-7.259867075247948e-05
-4.360835083249613e-05
-2.5642072552026784e-05
-1.4716352964552113e-05
-8.165082300179533e-06
-4.059843110054841e-06
-1.7770092094125667e-07
-2.89708479521662e-12
-2.399742731771123e-09
-1.8291767660574186e-08
-8.69975156006482e-08
-3.2039115040131946e-07
-9.913368752637288e-07
-2.6905827179721783e-06
-6.57931076565358e-06
-1.4762713750625748e-05
-3.080219732810356e-05
-6.036990682852185e-05
-0.00011203042911816321
-0.00019811316591621925
-0.0003356182731486409
-0.0005470826339918919
-0.0008613229739457239
-0.0013139727352148858
-0.0019477381030203768
-0.00281231560254413
-0.00396393679134035
-0.005464531875722239
-0.007380530502064195
-0.009781341719565443
-0.012737574029541045
-0.016319069224761503
-0.020592829962981
-0.025620921079791612
-0.03145841949018111
-0.03815147847998094
-0.04573556070344439
-0.05423388167451379
-0.06365609315805375
-0.07399722454335818
-0.08523689061956873
-0.09733876648726618
-0.11025032470652005
-0.12390282609128205
-0.13821155358536408
-0.15307627810409802
-0.16838194578541524
-0.18399957746205903
-0.19978737306834965
-0.21559201588977192
-0.23125017384275653
-0.24659019714895247
-0.2614340136665243
-0.2755992245781455
-0.28890140390711266
-0.30115660519553084
-0.3121840773313364
-0.32180918857903607
-0.3298665528871464
-0.33620334494849385
-0.3406827796223916
-0.3431877164944506
-0.34362433093913847
-0.3419257687742729
-0.3380556728681408
-0.3320114384767442
-0.3238270228931448
-0.31357510923938386
-0.30136841031456413
-0.2873599026308686
-0.2717418070017232
-0.25474317918460393
-0.23662603460659679
-0.21767999260760518
-0.19821547571969556
-0.17855553458372597
-0.15902640152778627
-0.13994693507433217
-0.12161724022479366
-0.10430695751123786
-0.08824399043553836
-0.07360471514091611
-0.06050687331421278
-0.049006270349814314
-0.03909801933595445
-0.030722422065951212
-0.023774807191919305
-0.0181179689401077
-0.01359547219134385
-0.010044119801625681
-0.007304282642880108
-0.005227414485662032
-0.0036807022269222155
-0.0025492623364902624
-0.0017365087449812142
-0.0011633128492568403
-0.0007664458093139159
-0.0004966374278872529
-0.00031646855202553887
-0.00019824971297029652
-0.00012200833822659922
-7.368319690331752e-05
-4.359163186123168e-05
-2.5189743825902326e-05
-1.4079527156386565e-05
-7.044943396144075e-06
-3.078650465423987e-07
-4.594443563922434e-12
-2.3224214261175036e-09
-1.9726472485037478e-08
-1.0230801610314603e-07
-4.003601253658758e-07
-1.2906780878961465e-06
-3.5992866133629062e-06
-8.954884677306592e-06
-2.030117438647756e-05
-4.258169948898754e-05
-8.358867911202135e-05
-0.00015494033122215035
-0.0002731235437043013
-0.00046051526221953265
-0.0007462809848527224
-0.0011670453114649498
-0.0017672387088944986
-0.0025990455876567778
-0.0037219087300125815
-0.005201580158060028
-0.00710874431795229
-0.009517271873131672
-0.012502188164075563
-0.016137457399874017
-0.02049369107968447
-0.02563588736754884
-0.03162129846704591
-0.0384975073782064
-0.04630077595690601
-0.055054705102307595
-0.06476922708869655
-0.07543993106319015
-0.08704770662931804
-0.09955867786246174
-0.1129243912976299
-0.12708221632031402
-0.14195591468007743
-0.15745633709889187
-0.17348220866335481
-0.18992097036765132
-0.20664965134299337
-0.22353575455728358
-0.240438147748743
-0.2572079607812633
-0.27368950023188815
-0.28972120161412473
-0.30513664896136133
-0.31976570024624795
-0.3334357649035269
-0.34597328602854915
-0.35720548394028157
-0.36696241882228936
-0.37507942697095126
-0.38139997647432755
-0.38577897246997234
-0.38808651802913513
-0.38821210294539615
-0.38606914859597874
-0.38159978301510633
-0.3747796585591466
-0.36562255971967594
-0.3541844883713115
-0.34056686839223543
-0.3249184929063204
-0.30743585568642773
-0.288361568609635
-0.2679806658087305
-0.2466147188791989
-0.2246138163982214
-0.20234657729675884
-0.18018846599492871
-0.15850877170446553
-0.13765673476998355
-0.1179474778844398
-0.09964863049204416
-0.08296877217961711
-0.06804896617523906
-0.05495858732124125
-0.04369628470851178
-0.03419626349317118
-0.02633924668623224
-0.019966700155770782
-0.014896401937595592
-0.010937361527608193
-0.00790245502144988
-0.005617801638906716
-0.003928646023592085
-0.0027021169132104648
-0.0018275808920782681
-0.001215389503555993
-0.0007947077774708847
-0.0005109233666864563
-0.0003229577035976291
-0.0002006756587499308
-0.00012251643692581113
-7.342242228171688e-05
-4.309719160573383e-05
-2.4537514494720386e-05
-1.2496594255854098e-05
-5.440942041655786e-07
1.121534129624127e-11
3.9750077519673565e-09
1.0361856793937103e-08
-1.6701846683961883e-08
-2.2825735042897714e-07
-1.0601588473978316e-06
-3.5367979446768995e-06
-9.75245275007398e-06
-2.356133577514246e-05
-5.148382342353058e-05
-0.00010380422548188452
-0.00019579978735191874
-0.0003490077157464245
-0.000592413067239635
-0.0009634300381340236
-0.001508554798200633
-0.00228358898065507
-0.0033533662173977695
-0.004790954870029576
-0.0066763527746542504
-0.009094729065660325
-0.012134299707752285
-0.015883944541547415
-0.02043068343732593
-0.025857128108878948
-0.032239016011361615
-0.039642916008188166
-0.04812417487841129
-0.05772515184961951
-0.0684737673671348
-0.08038237385875881
-0.09344694131851992
-0.10764653953413139
-0.12294309167438497
-0.1392813703505294
-0.15658920658210665
-0.17477788365963728
-0.19374269103850045
-0.21336361752734762
-0.23350616766717464
-0.25402228997504445
-0.2747514104125529
-0.29552156890423875
-0.31615066093280336
-0.33644779019565835
-0.35621474207642273
-0.3752475913289367
-0.39333846093190333
-0.4102774525355663
-0.4258547721793869
-0.4398630777629987
-0.45210007666276236
-0.4623714022220701
-0.4704937956370642
-0.4762986137303345
-0.4796356716748187
-0.4803774111028166
-0.47842335638748457
-0.47370478371337166
-0.46618947823286216
-0.4558863951739185
-0.442849974856332
-0.42718379626132186
-0.4090431998691049
-0.3886364815312479
-0.36622426901722294
-0.34211675146081627
-0.3166685404824485
-0.2902710898686107
-0.2633427675336448
-0.2363168348055213
-0.20962772726825135
-0.18369614954248806
-0.1589136137850059
-0.135627195609158
-0.11412546169032849
-0.09462670870791641
-0.07727076137126233
-0.062115497034182975
-0.0491389058004403
-0.038246847457804184
-0.02928583378805451
-0.022059349977999722
-0.016345667113651482
-0.011914962766497022
-0.00854389640116397
-0.006026465807435616
-0.004180781627932334
-0.002852108058237291
-0.0019129710430898506
-0.0012612890791281976
-0.0008173974942731272
-0.000520627649579185
-0.0003258743775763299
-0.00020040186343705217
-0.00012101449364858404
-7.162972687132854e-05
-4.115685965487837e-05
-2.1125292545578872e-05
-9.17071976670409e-07
1.1226973297135206e-10
3.148311660766061e-08
1.4219710118740848e-07
3.853478902206067e-07
7.264982682081226e-07
8.286398659648761e-07
-3.4859342180599176e-07
-5.189832139161682e-06
-1.8336165314175294e-05
-4.786248028380203e-05
-0.00010666794075992516
-0.00021398141717407135
-0.00039684610265892294
-0.0006914260482468033
-0.001143976359743613
-0.0018113388982385096
-0.002760863394087067
-0.004069704006412156
-0.005823496190981986
-0.008114470940918647
-0.01103910691384604
-0.014695451526330991
-0.019180257936835903
-0.02458608624677267
-0.030998506205969563
-0.038493518268141916
-0.04713528350426211
-0.056974224055692524
-0.06804552742300107
-0.08036806216768123
-0.09394369100957628
-0.10875695056811459
-0.12477505525818051
-0.141948175810409
-0.1602099399625904
-0.1794781033509385
-0.1996553417817111
-0.22063012120423767
-0.24227760825499994
-0.2644605917374144
-0.2870303935007176
-0.3098277556473131
-0.33268369968038713
-0.355420362014263
-0.3778518191577137
-0.39978492480611394
-0.42102018998755586
-0.4413527462027354
-0.46057344000382033
-0.4784701153850119
-0.4948291472626701
-0.5094372945599386
-0.5220839440894087
-0.5325638153771995
-0.5406801903296279
-0.546248718476067
-0.549101826506649
-0.5490937280145565
-0.5461059840574377
-0.5400535063627364
-0.5308908230110597
-0.5186183436452282
-0.5032882731179584
-0.48500973831399236
-0.4639526260797766
-0.4403495973505614
-0.41449576071939825
-0.38674557076831223
-0.3575066658049858
-0.32723056571400183
-0.29640038896876897
-0.2655159860223606
-0.23507709531632523
-0.20556529466070422
-0.1774256524927249
-0.15104910172579816
-0.12675667736955704
-0.10478685948812574
-0.08528728245512159
-0.0683119168804583
-0.053824422213004514
-0.04170769446450069
-0.03177878902297679
-0.023807575012497584
-0.01753690471088089
-0.012701937136419986
-0.009046588845070204
-0.006335794305608752
-0.004363128309111254
-0.0029541334967781623
-0.001966230062293844
-0.0012862986539532956
-0.0008269681773834617
-0.0005224182497187743
-0.00032423740829994665
-0.00019763963007514115
-0.00011814584531610039
-6.858507039788599e-05
-3.550290165693887e-05
-1.5355390627993782e-06
5.092879370503988e-10
1.1776641104089572e-07
5.413036891636156e-07
1.587833859650862e-06
3.6076676635669614e-06
6.721976422319877e-06
1.029859074604612e-05
1.2099479283908225e-05
7.073485696993223e-06
-1.4175394801359181e-05
-6.71510337739556e-05
-0.00017530977798399443
-0.0003717983014514503
-0.0007008834829883249
-0.0012188886113967518
-0.0019944913326449426
-0.003108298302289362
-0.004651679838720536
-0.00672491492353296
-0.0094347540089741
-0.012891548250935561
-0.017206116122662873
-0.022486522023972038
-0.028834929023954084
-0.03634466333450286
-0.0450975962124101
-0.05516191429222133
-0.06659031572523547
-0.07941863979732447
-0.09366491367782138
-0.10932878235768657
-0.12639127658867721
-0.14481486807365
-0.16454376027458156
-0.1855043658562588
-0.20760592685012583
-0.23074124011509584
-0.25478745779018375
-0.27960693958704186
-0.30504814057053053
-0.33094652431205335
-0.357125496909448
-0.3833973623972945
-0.40956430465329113
-0.435419405225695
-0.46074771078222243
-0.48532736834174445
-0.5089308513147291
-0.5313263048246722
-0.5522790449103059
-0.5715532529859912
-0.5889139141346864
-0.6041290549107906
-0.6169723424491217
-0.6272261104556752
-0.6346848772093283
-0.6391594136039932
-0.6404814026231769
-0.6385087023417767
-0.6331311796372127
-0.6242770190999807
-0.6119193306609141
-0.5960827824516478
-0.5768498785817336
-0.5543663959909086
-0.5288454067073297
-0.5005692622792668
-0.4698889275142234
-0.43722013850818847
-0.4030360322823268
-0.3678561431756859
-0.33223195807933664
-0.2967295299126251
-0.26190992674338537
-0.22830851552714929
-0.19641423845321046
-0.16665014754618235
-0.13935653099927833
-0.11477798178981416
-0.09305567857960262
-0.0742258980032607
-0.05822529451356496
-0.04490276793147051
-0.034036884158920595
-0.025357005000688618
-0.018565737411130684
-0.013360200675463365
-0.009449979602405722
-0.00657038203384215
-0.004490537454879027
-0.003016717725277499
-0.0019918455903034493
-0.0012924069563582739
-0.0008239362070633784
-0.0005160070800136585
-0.00031735024990191393
-0.00019139146287397118
-0.00011205032345927117
-5.836262644341821e-05
-2.5150289310386968e-06
1.763993469182256e-09
3.4740008007562297e-07
1.56021274648523e-06
4.575630408690633e-06
1.0653110961997411e-05
2.1053735996525254e-05
3.634175833184443e-05
5.523255696936301e-05
7.297752616458958e-05
7.936016758345632e-05
5.6460760254697377e-05
-2.3588094426574722e-05
-0.00020059949309675625
-0.0005278331169599403
-0.0010727898406422552
-0.0019171609567232336
-0.0031558789023637696
-0.004895304489409889
-0.007250663480343957
-0.010342903903388918
-0.01429518003151325
-0.01922917894843517
-0.02526149399543594
-0.032500221271937975
-0.041041916856895067
-0.05096900951432894
-0.06234772143253441
-0.07522651178026574
-0.08963502685753637
-0.10558351736460356
-0.12306266774733039
-0.14204377390993805
-0.16247920261766252
-0.18430306730102103
-0.20743205943431678
-0.2317663810856195
-0.25719073175216317
-0.28357531057802843
-0.31077680309684236
-0.3386393295295881
-0.3669953393105142
-0.39566644391847605
-0.4244641873175453
-0.4531907604477912
-0.4816396733509959
-0.5095964057591496
-0.536839064395326
-0.5631390828961954
-0.5882620081901343
-0.6119684253312815
-0.6340150810928972
-0.6541562748299358
-0.6721455928045607
-0.6877380686270592
-0.7006928566239098
-0.7107765052636662
-0.7177669121697184
-0.7214580280957066
-0.7216653514428432
-0.7182322141587453
-0.711036801133873
-0.6999997664536768
-0.6850922110257004
-0.6663436703889005
-0.6438496367171853
-0.6177780185834848
-0.5883738452634754
-0.5559614730904873
-0.5209435745157118
-0.4837963061701865
-0.44506026848683067
-0.40532717626476955
-0.3652225266373785
-0.32538493236434807
-0.2864431342854853
-0.2489919777135494
-0.2135688149984853
-0.18063188227029026
-0.1505422009595873
-0.12355046919696004
-0.09979020327552017
-0.07927801470755032
-0.06192132599209267
-0.04753305498799035
-0.035851935070549096
-0.026566364148440113
-0.019339193705273577
-0.01383083120636005
-0.00971846859303881
-0.006710058125004486
-0.004552621111640864
-0.0030353542626642854
-0.0019886076436174925
-0.0012800705623002616
-0.0008094494745458538
-0.0005026509359208347
-0.00030606303041410984
-0.00018080917863988558
-9.477702517927367e-05
-4.0680131268928975e-06
5.2147589325254174e-09
8.95439693231183e-07
3.891892046076042e-06
1.1202096202761297e-05
2.5915084972057658e-05
5.157709160231449e-05
9.121786252457496e-05
0.0001457491200405145
0.00021176677653668465
0.00027890674122178755
0.0003270072015520021
0.000323395911819246
0.00022063620196819027
-4.497155641582904e-05
-0.0005539165845315026
-0.001402923464581367
-0.002703323627796323
-0.004578464884595352
-0.007160353662025323
-0.010585775897222031
-0.014992161118096226
-0.020513443483959715
-0.027276140162293783
-0.035395819619011094
-0.044974078380336784
-0.056096091567650316
-0.06882875515849529
-0.08321939962004712
-0.09929502658369987
-0.11706200240347069
-0.1365061335855233
-0.15759304745587288
-0.18026880513346144
-0.2044606810751461
-0.23007805259907757
-0.257013352655964
-0.2851430488385319
-0.31432862065149236
-0.3444175151231781
-0.375244067840144
-0.40663038248112005
-0.43838716706077124
-0.47031452956447983
-0.5022027396905938
-0.5338329672603584
-0.5649780117625889
-0.5954030417319864
-0.6248663674835028
-0.6531202764024355
-0.6799119667603222
-0.7049846240714869
-0.7280786933922074
-0.7489334115678716
-0.7672886748256743
-0.7828873284322448
-0.7954779749539934
-0.804818403833375
-0.8106797445942896
-0.8128514352976285
-0.8111470725479056
-0.805411164841122
-0.7955267432299193
-0.781423689509027
-0.7630875225135015
-0.7405682421130186
-0.7139886783471888
-0.6835516470381956
-0.6495450971383193
-0.6123443779519054
-0.5724107856963929
-0.5302856918480805
-0.4865798192019247
-0.4419576031684751
-0.39711701956753714
-0.3527657213802638
-0.3095947443590289
-0.268251362941986
-0.22931287275635942
-0.19326313649212087
-0.1604736611055063
-0.13119077662761847
-0.1055301445295446
-0.08347931042332142
-0.06490832131113333
-0.04958759173200688
-0.037211338659607934
-0.02742418561523354
-0.01984814740519412
-0.014107274667713028
-0.00984777167504531
-0.006752278965189049
-0.004548017362673928
-0.003009385401328584
-0.00195620998857295
-0.001249095679761333
-0.0007832191771927809
-0.0004814914895916099
-0.00028699075268172027
-0.0001513498512515153
-6.4696112547053635e-06
1.3777802329455697e-08
2.0996071591912063e-06
8.809868871341767e-06
2.4733589580538703e-05
5.6272181334956876e-05
0.00011100729914227406
0.00019626729814378873
0.0003168384153293482
0.0004719365222543474
0.0006517122429153127
0.000833678003071853
0.0009794960224636937
0.0010325433896481516
0.000916582327702009
0.0005357308468636787
-0.00022422259650174594
-0.0014932612471380033
-0.0034135566544941454
-0.006135154293543765
-0.009811256030330635
-0.014593420499897593
-0.02062696431047992
-0.028046788477271465
-0.036973786745653
-0.04751192501681578
-0.059746020937414344
-0.07374020407060103
-0.08953700160070692
-0.10715697192062965
-0.1265987970658707
-0.14783974245594228
-0.17083639627211777
-0.1955256087207362
-0.22182556148762272
-0.24963690845392428
-0.278843939268049
-0.3093157271158865
-0.340907230783269
-0.37346032886143504
-0.40680477084013605
-0.4407590360577243
-0.4751310972394743
-0.5097190908438867
-0.5443119018112723
-0.5786896756983484
-0.6126242766936285
-0.6458797157381613
-0.6782125790269655
-0.7093724936562937
-0.7391026742492622
-0.7671406021871594
-0.7932188977288579
-0.8170664548774849
-0.8384099192521757
-0.8569756000561256
-0.8724919176622582
-0.884692496888057
-0.8933200204026673
-0.8981309536466596
-0.8989012379177889
-0.8954330168651855
-0.887562408205883
-0.8751682522343993
-0.8581816586398967
-0.8365960337183757
-0.8104771070091754
-0.7799723024694777
-0.7453186353924308
-0.7068481909586971
-0.664990187283302
-0.6202686785064531
-0.5732951371105552
-0.5247554772401655
-0.4753915258127225
-0.42597747231853317
-0.37729236685550077
-0.3300902164781521
-0.2850695884905113
-0.24284482446005465
-0.20392098538432624
-0.16867448990512893
-0.13734108096598677
-0.1100122629271151
-0.08664069041347573
-0.06705418109318441
-0.05097713248905072
-0.0380572728295862
-0.027895035969034206
-0.02007258339305666
-0.014179697177354022
-0.009834416109743643
-0.0066972411562799365
-0.004478774213186171
-0.002941545530978237
-0.0018973592550894868
-0.0012016524674933792
-0.0007460222182947029
-0.00044871989471495277
-0.0002380819930049153
-1.0133191025704997e-05
3.334825553699878e-08
4.572786266470683e-06
1.8521051192917473e-05
5.06056852239552e-05
0.00011275751640048133
0.0002190544039110552
0.00038352183492033827
0.0006168107671538355
0.0009220200250957026
0.0012901209430869521
0.0016955506377996188
0.002092547568635385
0.0024127136413422934
0.0025641255818562897
0.00243212033500533
0.0018816820369597002
0.0007611925130976242
-0.0010928069913955316
-0.0038502506706645703
-0.00768198774112929
-0.01275439109823301
-0.01922442648033198
-0.02723538690537486
-0.036913410018351495
-0.04836481818959863
-0.0616742586181044
-0.07690357563744703
-0.09409131943239936
-0.11325278215505084
-0.13438045074847557
-0.1574447722010361
-0.18239513831417487
-0.2091610107945743
-0.2376531216797072
-0.2677646975300427
-0.2993726677815425
-0.3323388278801027
-0.3665109363339323
-0.4017237318099863
-0.437799862136557
-0.4745507218452434
-0.5117771989639361
-0.5492703353976246
-0.5868119086118234
-0.6241749456454
-0.6611241838965921
-0.6974164968241288
-0.7328013068813802
-0.7670210128830065
-0.7998114648532509
-0.8309025265120326
-0.8600187742099088
-0.8868803915679285
-0.9112043314251712
-0.9327058308052281
-0.9511003799276543
-0.9661062616382448
-0.9774477909997286
-0.9848593931126292
-0.9880906562873907
-0.9869124820789907
-0.9811244171821778
-0.9705631883325258
-0.9551123646470119
-0.934712939264511
-0.9093744552151065
-0.8791861073182512
-0.8443270492466078
-0.8050749487216963
-0.7618116985439777
-0.7150251459822908
-0.6653057852324332
-0.6133375933839474
-0.5598825848052755
-0.5057591887900962
-0.45181516739701383
-0.3988964081456009
-0.3478134645695077
-0.29930810133187763
-0.2540222792778847
-0.21247196934853713
-0.17502791712885168
-0.14190500874140968
-0.11316123423531056
-0.08870643377736433
-0.06832009458903215
-0.051676533254739074
-0.0383749845739929
-0.027971583780814196
-0.020010109536392855
-0.014048708852933061
-0.009680597410594629
-0.006547756073336655
-0.004347698972375003
-0.0028342408076251053
-0.0018136423534434844
-0.0011372954151191318
-0.0006903302904025781
-0.0003684562777099648
-1.5611810540580533e-05
7.50923956796867e-08
9.368187134192549e-06
3.6653836470552176e-05
9.74098212309387e-05
0.00021219001048109504
0.0004047626254385089
0.0006986866385447295
0.0011125014334427187
0.0016540407661437381
0.0023145833579653265
0.00306361668785986
0.003844913625827007
0.004574431227050184
0.005140285028981105
0.0054047838803310015
0.005208276036587659
0.004374388338745176
0.0027161503230864904
4.2481540319719056e-05
-0.0038354310003210963
-0.009098247826401498
-0.015913355965620317
-0.024430670486495474
-0.03477941617271956
-0.04706586592387925
-0.06137195477719594
-0.07775465327913597
-0.0962459680314556
-0.1168534360791723
-0.13956098867114625
-0.16433007456598941
-0.19110095009907993
-0.2197940602754236
-0.25031145073496797
-0.2825381638378541
-0.31634358317931555
-0.3515826997676159
-0.38809728027277657
-0.425716923630323
-0.4642599972911782
-0.5035344489033586
-0.5433384934600232
-0.5834611801288657
-0.623682847192137
-0.6637754778235153
-0.7035029738289778
-0.7426213690035811
-0.7808790084499085
-0.8180167251609395
-0.8537680505535402
-0.8878595016928522
-0.9200109949955216
-0.9499364446193697
-0.9773446139150395
-1.0019403005047156
-1.0234259497785048
-1.0415038073995408
-1.0558787375803111
-1.0662618481915915
-1.0723750726374166
-1.0739568568438849
-1.0707690812100366
-1.0626053044750645
-1.0493003415393556
-1.0307410740055711
-1.0068782375530985
-0.9777387369267978
-0.9434378182190528
-0.9041902002997594