# vtk DataFile Version 4.1 
COMMENT
ASCII
DATASET STRUCTURED_POINTS 
DIMENSIONS 100 100 1 
ORIGIN 0 0 0
SPACING 0.12693303650867893 0.12693303650867893 0 
POINT_DATA 10000
SCALARS U double 1
LOOKUP_TABLE default
0.0
0.0
0.0
0.0
0.0
0.0
0.0
0.0
0.0
0.0
0.0
0.0
0.0
0.0
0.0
0.0
0.0
0.0
0.0
0.0
0.0
0.0
0.0
0.0
0.0
0.0
0.0
0.0
0.0
0.0
0.0
0.0
0.0
0.0
0.0
0.0
0.0
0.0
0.0
0.0
0.0
0.0
0.0
0.0
0.0
0.0
0.0
0.0
0.0
0.0
0.0
0.0
0.0
0.0
0.0
0.0
0.0
0.0
0.0
0.0
0.0
0.0
0.0
0.0
0.0
0.0
0.0
0.0
0.0
0.0
0.0
0.0
0.0
0.0
0.0
0.0
0.0
0.0
0.0
0.0
0.0
0.0
0.0
0.0
0.0
0.0
0.0
0.0
0.0
0.0
0.0
0.0
0.0
0.0
0.0
0.0
0.0
0.0
0.0
0.0
1.387009529200546e-13
-6.803078637861671e-11
-7.1094698617066e-10
-3.832935986980717e-09
-1.4820794057613374e-08
-4.624251627808584e-08
-1.2339343843529465e-07
-2.9123111368540663e-07
-6.210676433809157e-07
-1.2137969074082644e-06
-2.1946431858357818e-06
-3.692787460004186e-06
-5.798200839067896e-06
-8.48802306617372e-06
-1.1516185271628156e-05
-1.4262804192256346e-05
-1.554403071383718e-05
-1.3388127492102463e-05
-4.7889880978206925e-06
1.4546603429209374e-05
5.0437630099816384e-05
0.00011043065059272773
0.00020394156765480504
0.0003423158679101278
0.000538789551632829
0.0008083383348489324
0.0011674092171686703
0.0016335355706671966
0.0022248439128702345
0.0029594669353147805
0.00385488273432401
0.004927204240005161
0.006190445420743329
0.00765579195207385
0.00933090379682382
0.011219275750069379
0.013319679711749
0.015625709534220062
0.018125446013814477
0.020801256183613854
0.023629737699241208
0.02658181591199808
0.029622998253577577
0.03271378781223906
0.035810255403903
0.038864766926913215
0.04182686019200565
0.04464426257001092
0.04726403752015477
0.04963384418153556
0.051703289589697866
0.05342534763321308
0.054757812584585994
0.055664748021886375
0.05611788442612682
0.05609791107059069
0.055595600569165994
0.0546126983988207
0.05316250590697529
0.05127008513598489
0.0489720189719546
0.04631567264649398
0.04335792445610642
0.04016336607617942
0.036802015912262606
0.03334663994133601
0.029869827615576078
0.026441016637747894
0.023123688972524564
0.01997296145810888
0.01703376240086011
0.014339722630118087
0.011912826196073057
0.009763779102131399
0.00789298239968362
0.0062919520291444845
0.004945015928826286
0.0038311329817423273
0.0029257057483828334
0.0022022869985477405
0.0016341017733432063
0.0011953226774822914
0.0008620520847162772
0.0006129866962921216
0.0004297686082861035
0.0002970580530990641
0.00020238828214857478
0.00013587575638646655
8.985666806266747e-05
5.850696208278922e-05
3.748386111321097e-05
2.360881397788439e-05
1.459865522571426e-05
8.844301351432576e-06
5.2330645744255396e-06
3.0095849676035886e-06
1.6698542675689297e-06
8.812439107121286e-07
4.127174098509307e-07
1.8005595240806328e-08
3.00606153164416e-13
-2.5010395472985034e-10
-2.1636252721918588e-09
-1.0457393032014138e-08
-3.738734383326602e-08
-1.0970215668373038e-07
-2.784081114089907e-07
-6.303477322091555e-07
-1.2990671609344671e-06
-2.470724530711743e-06
-4.379270345993007e-06
-7.2842727785214725e-06
-1.142497735965645e-05
-1.6945726798206675e-05
-2.379071811409475e-05
-3.1569961337940814e-05
-3.940271105459316e-05
-4.574891113456272e-05
-4.824264847595036e-05
-4.354368603771183e-05
-2.7223479481258598e-05
6.29942088580121e-06
6.376284988482836e-05
0.00015299609641994668
0.00028278443916550784
0.00046266632782704343
0.0007026712551130947
0.0010130103338352394
0.0014037343542975236
0.0018843755065579364
0.0024635890287669888
0.0031488099394403547
0.003945937976507875
0.004859061200193566
0.005890225733305747
0.007039256103318574
0.008303627862801302
0.009678391786870898
0.011156147103936372
0.012727059974251958
0.014378922802092726
0.016097249921342534
0.01786540566825126
0.019664761763313103
0.021474882164835476
0.02327373501636251
0.0250379328655388
0.02674300385059382
0.02836369788987772
0.02987433291798082
0.031249186730704075
0.032462939871727686
0.03349117406488246
0.03431092883045215
0.03490131599991529
0.03524418774269808
0.03532484830218655
0.035132792721850846
0.03466244719989693
0.03391387516288865
0.032893400793205095
0.031614088359326074
0.030096003248218563
0.028366172650185425
0.026458165515039943
0.02441122845703932
0.022268951215482374
0.020077492546643576
0.017883468932257972
0.015731680635708834
0.013662903352603053
0.01171198987486063
0.009906493128367522
0.008265941908507197
0.0068017918301964434
0.005517965888497214
0.0044118218074296195
0.003475355966035915
0.0026964760231231984
0.0020602280782436766
0.00154992207983122
0.0011481382505785145
0.0008376088410418629
0.000601960866883857
0.0004262932091929048
0.00029756067149903264
0.00020475368933875539
0.0001388895520410483
9.285718060296083e-05
6.117202218106596e-05
3.969651793941479e-05
2.536831132285371e-05
1.5960365340247282e-05
9.881460336640462e-06
6.015750237998242e-06
3.5960202978011867e-06
2.1045069996042348e-06
1.1936157135004214e-06
6.067377799757235e-07
2.6818344899899347e-08
3.381694341570113e-13
-8.667119743996017e-10
-6.649370926678623e-09
-2.985653638334181e-08
-1.012023272360427e-07
-2.8482673761827927e-07
-6.987023332728914e-07
-1.5377063391520637e-06
-3.0939394236941614e-06
-5.76581971459632e-06
-1.0044989202486395e-05
-1.646889645069108e-05
-2.5527673039881763e-05
-3.7516897185196576e-05
-5.2332923801005005e-05
-6.92141325827309e-05
-8.643885914691214e-05
-0.00010099791641973323
-0.00010826548636179163
-0.0001016959505628591
-7.257542175929657e-05
-9.855188926752538e-06
9.990979781714299e-05
0.0002725004035470931
0.0005258412278864587
0.0008796755167042654
0.0013551135287827383
0.001974067946985515
0.002758595794288656
0.003730170645601322
0.004908911613758031
0.006312796686608048
0.007956887676424761
0.009852592566733022
0.012006988698143572
0.0144222273217275
0.017095036841861432
0.020016338806234844
0.023170987564145977
0.0265376416359417
0.03008877229302754
0.03379081266542384
0.037604448853347024
0.0414850529622672
0.04538325661483561
0.04924566219642177
0.05301568771762395
0.05663453956125802
0.060042305343993324
0.06317915648178328
0.06598664663423481
0.06840908788487696
0.07039498123544427
0.07189847181863865
0.07288079240634304
0.07331165176828473
0.0731705179056804
0.07244774099984037
0.07114545794911947
0.06927822026996218
0.06687329007415622
0.06397055432753115
0.060622014660795434
0.05689081772082586
0.05284979953900445
0.0485795288395985
0.044165853282211995
0.03969698547734514
0.0352602170426301
0.03093841830576834
0.026806558594235023
0.02292854735361849
0.019354723557788032
0.01612028709101447
0.01324486249277057
0.010733226731965723
0.00857705488251978
0.0067573886152070654
0.0052474538828149375
0.004015464241871218
0.003027132108069798
0.002247734328437667
0.0016436957647211752
0.0011837321101814263
0.0008396216138282436
0.0005866679985491114
0.0004038975958638443
0.00027402269412730713
0.00018320744078854576
0.00012068656780825284
7.829911764069606e-05
5.0000252356875315e-05
3.140245736807955e-05
1.9377944625650817e-05
1.1734207855869669e-05
6.959997059303207e-06
4.030733396342586e-06
2.2561890997302432e-06
1.1306729556220166e-06
4.9678476910920814e-08
-1.1294545097310969e-12
-2.7290530569138117e-09
-1.8904110141209492e-08
-7.92612510697893e-08
-2.5497150409512356e-07
-6.877099498438562e-07
-1.6276938483910868e-06
-3.4741236995489455e-06
-6.8080470672991335e-06
-1.2403776977496752e-05
-2.1202786421667673e-05
-3.4234436697388894e-05
-5.247148857099042e-05
-7.66149707294184e-05
-0.00010681187401634158
-0.00014231903085269962
-0.00018113590136574934
-0.00021963634002518167
-0.00025223359662130903
-0.0002711131622775641
-0.00026606454588750934
-0.00022443615802550835
-0.00013122811899936635
3.067282364258589e-05
0.0002801227505868922
0.0006372304731719566
0.0011227716108911992
0.0017575357513156782
0.0025616381045992782
0.003553827001568618
0.004750816300233321
0.00616666776657288
0.007812243363998896
0.009694741706867165
0.01181732723717275
0.014178855408040002
0.016773692629298596
0.019591626161321252
0.022617856639890757
0.025833064494696634
0.029213541135697622
0.032731376324634395
0.0363546944915713
0.04004793474841345
0.04377217183274469
0.04748547801860738
0.05114332897885029
0.054699059482759646
0.05810437744263034
0.06130994692548845
0.06426605201509882
0.06692335348645977
0.06923374873841066
0.07115134190358344
0.07263352514699777
0.07364216364197318
0.07414486560477064
0.07411630550316907
0.0735395540426382
0.07240735416312613
0.07072326972189692
0.06850262437981827
0.0657731434864961
0.06257521162980811
0.05896166236852636
0.05499702392232183
0.050756156081281076
0.046322232909513414
0.0417840595401779
0.037232767074769794
0.03275801136025703
0.028443903960648304
0.02436500828342049
0.020582809585975914
0.017143079589585768
0.014074480043167626
0.011388584759029275
0.009081277709419102
0.007135262041646378
0.0055232535168005924
0.004211375648620901
0.00316233015330658
0.0023380541871101303
0.0017017407138675356
0.0012192365655804
0.0008599128507600583
0.0005971230287071251
0.0004083467794039451
0.0002750909166420762
0.00018260160838538489
0.00011943963572520839
7.697516933199678e-05
4.886020480264251e-05
3.0529291344932675e-05
1.876325122385079e-05
1.1331433508483963e-05
6.710513314832004e-06
3.859845600887812e-06
1.988263845664165e-06
8.71541213504269e-08
-9.606931419200056e-12
-7.942650986612509e-09
-5.047869467539573e-08
-1.9917470562822835e-07
-6.109410824915818e-07
-1.5842778454471468e-06
-3.6261154678812054e-06
-7.517721993160105e-06
-1.4361718457033333e-05
-2.558762483796312e-05
-4.2892127405584355e-05
-6.809342096856572e-05
-0.00010288666041083865
-0.00014849892167528056
-0.00020525549455109644
-0.0002720827300994122
-0.0003459839452856021
-0.00042153232977067774
-0.0004904273604754813
-0.0005411586645869204
-0.0005588141008070132
-0.0005250581660654712
-0.00041829414288642864
-0.00021401022703304497
0.0001147023862084789
0.0005964817416904256
0.001260907555284693
0.002137628326367198
0.0032554393799345597
0.004641347339103914
0.0063196538109754185
0.008311086987555892
0.010632005015066656
0.013293689895297165
0.016301745771400977
0.01965561101773711
0.023348189783200697
0.02736560561337596
0.03168707750264052
0.03628491715002134
0.041124645223161685
0.04616522396542115
0.051359403397797675
0.056654178557398814
0.061991355569770326
0.06730822477036133
0.07253833946913063
0.07761239918669627
0.0824592361654775
0.08700690354311777
0.09118386261268095
0.09492026490046034
0.09814932215325627
0.10080875350397968
0.10284229383476921
0.10420124047741712
0.10484600679511148
0.10474764102201123
0.10388925751604862
0.10226731632625466
0.09989267725308268
0.09679134835041445
0.09300484803227242
0.08859010590105515
0.08361884007054732
0.07817636643382242
0.07235981520115738
0.06627574968420899
0.060037201907082435
0.053760163671611724
0.04755960861249405
0.041545179232372206
0.03581675529511969
0.03046021556053022
0.025543787107865014
0.021115408203377296
0.01720147758171022
0.013807211443505659
0.01091859923724263
0.008505693639600843
0.0065267596228416715
0.004932703209612067
0.003671229006291487
0.002690318014504836
0.0019408185729836486
0.0013781371479820589
0.000963151441296288
0.0006625275980643274
0.0004486194756847025
0.0002990914336675191
0.0001963662413286401
0.00012697249536122634
8.08524037711441e-05
5.0683283036031836e-05
3.1256671946587375e-05
1.8944244413527422e-05
1.1260066480047359e-05
6.499519256419745e-06
3.35560642602683e-06
1.4669904070094768e-07
-4.3045222790162513e-11
-2.1555132432827754e-08
-1.2710221715700832e-07
-4.746086574080933e-07
-1.3927474415263957e-06
-3.479626416229804e-06
-7.712061200105983e-06
-1.554349538097531e-05
-2.896060597553672e-05
-5.046489020438952e-05
-8.294790367792006e-05
-0.0001294378649947542
-0.00019271015014975622
-0.00027477258074745203
-0.0003762553764046338
-0.0004957520609721762
-0.0006291688391552548
-0.0007691443112932183
-0.0009045983767540787
-0.0010204594596829636
-0.0010976043656469473
-0.00111302728926844
-0.0010402360384796556
-0.0008498565126877235
-0.0005104124981779395
1.0762048998620348e-05
0.0007465264716880203
0.0017289019465238024
0.002988051715299187
0.004551314040680435
0.006442321352832528
0.008680230481267726
0.011279080125746353
0.014247283491717855
0.01758725679379939
0.021295178426048302
0.025360869159063163
0.029767780769360198
0.03449307895852288
0.03950780613873304
0.04477711047456785
0.05026052929441718
0.05591231743860663
0.06168181412763686
0.06751384535932083
0.07334916253502295
0.0791249218318725
0.08477521262909683
0.09023164688696368
0.09542402454931266
0.1002810925203791
0.10473141620670044
0.10870438258835077
0.11213135178591041
0.11494696955743956
0.11709064551694838
0.11850819060413341
0.1191535921438915
0.11899088578533977
0.11799606138955886
0.11615891607857667
0.11348474470082792
0.1099957393752281
0.10573195950534939
0.10075173529900348
0.09513138346887853
0.08896414298929767
0.08235827833595859
0.07543434261905385
0.06832163916782726
0.06115396658760679
0.05406478305809792
0.047181987655148076
0.04062259415887446
0.03448766045655855
0.02885791325155312
0.023790538990170876
0.01931756138803623
0.015446073259980314
0.012160347273933196
0.00942556549075184
0.007192654623661061
0.005403564831057771
0.003996326021437051
0.0029093507091844024
0.0020846755025760856
0.0014700713447858677
0.0010201405994583325
0.0006966225649919216
0.0004681500887754006
0.0003096663629797279
0.00020165726647993848
0.00012930616747778767
8.164477012699911e-05
5.075276991983411e-05
3.104301936267606e-05
1.8649239979620662e-05
1.0893831609635627e-05
5.683426027199832e-06
2.476086835605409e-07
-1.5249259092229285e-10
-5.492721939743195e-08
-3.03084756093988e-07
-1.0760267632121175e-06
-3.0297140630737747e-06
-7.307133053712043e-06
-1.5703814234561304e-05
-3.0797782623665984e-05
-5.5997240613078675e-05
-9.545932247661039e-05
-0.0001538428783667387
-0.00023587665913598623
-0.0003457486852977468
-0.000486348857295944
-0.0006584204823136872
-0.0008596934276628902
-0.0010840794699852074
-0.0013210082117243098
-0.0015549704906912347
-0.001765317667786503
-0.0019263424954675237
-0.0020076436054223914
-0.001974753853794222
-0.0017899949899641465
-0.0014135086696398693
-0.000804407140544889
7.801433427821679e-05
0.0012730579534547715
0.002817444717303422
0.004744215819520438
0.007081743608220097
0.009852872073753712
0.013074198122476796
0.016755497541771077
0.020899293788356574
0.025500563574154072
0.030546570569793728
0.03601681719106081
0.04188310412939893
0.048109687778647874
0.05465352676111311
0.06146461016773124
0.06848636174398227
0.07565611596389188
0.0829056636670907
0.09016186664825879
0.09734734226536837
0.10438122076282934
0.11117997957234621
0.11765836032057167
0.12373037556048733
0.12931041321364464
0.13431444714116403
0.13866136182854186
0.14227439743301748
0.14508271784696988
0.14702309832953225
0.14804171997599655
0.14809604524718512
0.14715673167104984
0.14520951991602796
0.1422570088575603
0.13832020631586062
0.13343972339554197
0.12767646734807528
0.12111168732610005
0.11384624291529216
0.1059989979996068
0.09770429001812181
0.08910848167979271
0.08036566240044218
0.07163262585688183
0.06306330834691204
0.05480293452055197
0.04698218684654685
0.039711789983296115
0.0330779645846924
0.02713922673092622
0.021924954132730438
0.01743598562610164
0.013647272855943353
0.010512306392016843
0.007968765306606045
0.005944665938657913
0.004364262473321861
0.0031530819860398104
0.0022417139432157145
0.0015682438134983249
0.0010794486047818004
0.0007310125132025146
0.0004870654723908475
0.00031931952690752774
0.00020601430810653217
0.00013081554235015993
8.17569153850194e-05
5.027789493781225e-05
3.037803963826043e-05
1.7850591934822983e-05
9.35458581890756e-06
4.06248339587981e-07
-4.687852186179097e-10
-1.3214747126315393e-07
-6.869377304033075e-07
-2.3276896092995e-06
-6.304270240130688e-06
-1.470351502160495e-05
-3.067883462352913e-05
-5.859676503101944e-05
-0.00010403354259165612
-0.00017356388954847438
-0.0002743065584517571
-0.0004132233780389802
-0.00059620488468968
-0.0008270095742255617
-0.0011061494647096393
-0.0014298279380437118
-0.0017890351018855558
-0.0021688920503863877
-0.002548311284130906
-0.002900010285274651
-0.003190883294167234
-0.003382706741112825
-0.0034331296328057492
-0.0032968833307698052
-0.0029271362032233486
-0.0022769171404892707
-0.001300536695450809
4.505598669775747e-05
0.0017990300074145645
0.003995579370014194
0.006663002125839134
0.009822962471646783
0.013489935861459145
0.017670828949740824
0.022364760157023655
0.027562982724139554
0.033248930058319796
0.039398362676625075
0.04597959681093633
0.05295379646582332
0.06027531316674752
0.06789206059889936
0.07574591466107446
0.08377313303047419
0.09190479207197945
0.10006724276999453
0.10818259126260886
0.11616921346290493
0.12394231708830862
0.13141456807837562
0.13849680170384276
0.14509884142289312
0.15113045040233422
0.15650244116497317
0.1611279675112071
0.16492401904825044
0.16781313162129383
0.16972531593303739
0.17060019099581403
0.17038928835154116
0.1690584672410184
0.16659035086900237
0.16298666142432822
0.158270299749615
0.1524869891173659
0.14570628718098894
0.138021771788584
0.1295502297093274
0.1204297242192792
0.11081648547328282
0.10088064991948463
0.0908009624512602
0.08075863902951781
0.07093066358968345
0.061482861561891505
0.05256315574508639
0.04429546683855186
0.03677475824278542
0.030063718112000058
0.024191491127832376
0.019154697914344064
0.014920717854081838
0.01143290315526984
0.008617108915624954
0.0063887422800055285
0.004659506735356448
0.0033431521879515613
0.0023597948088061355
0.001638666951688702
0.0011194178623838383
0.0007522563177985959
0.0004972913042713232
0.00032340549459853826
0.0002069257847198133
0.0001302717649439777
8.068870487795722e-05
4.910606078038102e-05
2.906237976659471e-05
1.5310625471053308e-05
6.624519554852072e-07
-1.2997828880823136e-09
-3.0153549123719536e-07
-1.4846332066586123e-06
-4.81713285526545e-06
-1.257714675145726e-05
-2.8411242189996525e-05
-5.761931834384072e-05
-0.00010727373183634223
-0.00018608574888891912
-0.0003039581329822499
-0.0004712040736467375
-0.0006974620889093131
-0.0009903846452500524
-0.0013542162471093363
-0.0017883983064675682
-0.002286340384393017
-0.002834481238749079
-0.003411732367336802
-0.003989357119237345
-0.0045312962384652135
-0.004994911597238009
-0.005332088175100815
-0.00549061257102189
-0.005415735245199007
-0.0050518225288601224
-0.004344011421269771
-0.0032397929660967664
-0.0016904661042166744
0.00034757889801038765
0.002911771844239709
0.006032478691644923
0.009732320356663802
0.014025683431136525
0.018918406058130707
0.024407618867135727
0.030481719654881296
0.03712046092027788
0.044295130936468294
0.051968811345118784
0.06009669694411305
0.06862646615372467
0.07749869341632087
0.0866472974133349
0.09600002143517178
0.1054789445279403
0.11500102421418504
0.12447867371524322
0.133820378773665
0.1429313614659379
0.1517143008701662
0.16007012313201724
0.1678988763101903
0.1751007082359655
0.1815769682105301
0.18723145523715057
0.19197183599023632
0.19571125399568914
0.19837014648350973
0.19987827590464685
0.20017696803319354
0.1992215270028685
0.19698376921553176
0.19345458342958072
0.1886463854971235
0.18259529693386542
0.17536284241184835
0.1670369395263988
0.15773195248013253
0.14758760612834415
0.136766611337657
0.12545093497727502
0.11383675070679897
0.10212821859021833
0.0905303501943511
0.07924131190097994
0.06844459831480423
0.05830156894376412
0.04894488216769009
0.04047337077631281
0.03294886336510804
0.026395341989883074
0.020800624248987012
0.016120477291086642
0.01228475464442466
0.00920486324428432
0.006781691996412397
0.00491311623311162
0.00350034118623266
0.002452619353412103
0.0016901949688443666
0.0011456124115343752
0.0007637161601391041
0.0005007480457414945
0.0003229293267298984
0.00020483719226570846
0.0001277841031591949
7.82976495649678e-05
4.6625192397742223e-05
2.466024769447261e-05
1.0630052486236803e-06
-3.318496117532463e-09
-6.551008062353934e-07
-3.0685573107580797e-06
-9.560387870562522e-06
-2.4109776356162492e-05
-5.2825011951381206e-05
-0.00010424228642569143
-0.0001893287554098592
-0.00032109098303721766
-0.0005137416836133886
-0.0007814439808376272
-0.0011367200332262747
-0.0015886668095209818
-0.002141156183094218
-0.002791204468223725
-0.0035276785347197036
-0.0043304667202864995
-0.0051701907834104145
-0.006008478917270304
-0.006798767422699871
-0.007487556095347164
-0.00801601326184934
-0.008321811714362422
-0.008341075453786434
-0.008010326631560191
-0.007268339122456438
-0.006057826411101387
-0.004326913943267591
-0.0020303674331049507
0.0008694327680666831
0.0044017661241929455
0.008587078934259381
0.013436700227207641
0.01895273863703488
0.025128130790577886
0.03194681216271162
0.03938398318233952
0.047406446110998965
0.05597299147745804
0.06503481635876357
0.07453596036974276
0.08441374875603053
0.09459923543572535
0.1050176421974248
0.11558879355823151
0.12622755004805367
0.13684424595383324
0.14734514086382533
0.15763289772221523
0.16760710354451475
0.17716485243085126
0.18620141397782544
0.19461101349146692
0.20228775330685222
0.20912670665375785
0.215025216332637
0.21988442924281565
0.2236110935878076
0.22611963724023823
0.22733453204886223
0.2271929286396164
0.22564751864550694
0.2226695461208114
0.218251848111048
0.21241175853656213
0.20519366429035432
0.19667096445302298
0.18694716118217877
0.17615581305242953
0.16445911589961892
0.1520449462628238
0.1391223061685235
0.12591523649659506
0.112655405441222
0.09957371261193552
0.0868913642747552
0.07481096225711334
0.06350820381479769
0.0531248086016398
0.04376326373734141
0.0354838944575696
0.028304609910543756
0.022203434889137518
0.017123634746158346
0.012980917597735791
0.009671922871704526
0.00708304840781373
0.005098675893535324
0.00360802857845918
0.002510190409020585
0.001717154302198586
0.0011550672482212396
0.0007640422143983831
0.0004969902141942165
0.0003179048526768964
0.00019993866185134224
0.00012346345678207037
7.403267533571243e-05
3.932651841291716e-05
1.6884228872584e-06
-7.903389595455054e-09
-1.359672275770793e-06
-6.081550837639954e-06
-1.823796647242723e-05
-4.4500669361714464e-05
-9.46920437167353e-05
-0.000182003538968131
-0.0003227326029432687
-0.0005354477107746914
-0.0008395782443274899
-0.001253519818718911
-0.0017924270633101601
-0.0024659196160836134
-0.0032759448986231367
-0.004215022671788713
-0.005265047789792516
-0.006396759761427028
-0.007569913075202766
-0.00873411216650619
-0.009830218044273928
-0.010792194962072761
-0.011549246494907088
-0.012028089359719813
-0.012155226672371613
-0.011859105472476183
-0.0110720716067934
-0.009732064364704475
-0.007784020488387205
-0.00518098030091524
-0.0018849066880487946
0.002132759655000607
0.006890777535816251
0.012397980339743778
0.018653313671015026
0.025646002253366117
0.033355816129053896
0.041753410311459155
0.05080071641601677
0.06045136906004322
0.07065115376595912
0.0813384666171858
0.09244477897717054
0.10389510322307348
0.11560845773846952
0.1274983314498923
0.1394731500908178
0.15143674825306883
0.16328885326353285
0.17492558912729153
0.18624001132339285
0.1971226862237652
0.20746233238757075
0.21714654495360966
0.22606262869675192
0.2340985697607921
0.24114418015083594
0.24709245202351207
0.25184115961409054
0.2552947439424396
0.257366507646057
0.2579811326756011
0.2570775105461718
0.254611842227236
0.25056092238706035
0.24492547191087968
0.23773332679190715
0.22904223654343728
0.21894197960034523
0.20755547705571173
0.19503859021189415
0.1815783306228351
0.16738929774318956
0.15270828617202212
0.13778716107502367
0.12288426941517461
0.10825481584609013
0.09414076684698398
0.08076094134202158
0.06830199275648464
0.05691098124653024
0.04669016964205676
0.037694543744722246
0.029932349600094676
0.02336866044413605
0.01793165837512849
0.013520989591840917
0.010017293680609175
0.007291881118664553
0.005215576856828518
0.0036659559609142165
0.0025325192064019997
0.001719712779982653
0.0011480054746344074
0.0007534412108602495
0.0004861630369998757
0.00030836500684977596
0.0001919713812583179
0.00011594825429094432
6.186632336115981e-05
2.645137956345275e-06
-1.7716657515286702e-08
-2.704068101146505e-06
-1.158557105920861e-05
-3.351346568058157e-05
-7.924168039585172e-05
-0.00016395213940951248
-0.0003072234867889661
-0.0005322778019865127
-0.0008644605366821445
-0.0013290372540866503
-0.001948508065059829
-0.002739723546668424
-0.0037111205084819354
-0.004860379745683129
-0.006172748600274361
-0.007620183346790714
-0.009161367455569724
-0.010742567874836398
-0.012299214966631708
-0.013758039803194904
-0.0150395771557015
-0.016060841403122732
-0.016738000649174176
-0.016988905148755815
-0.01673536329499223
-0.015905096398790983
-0.01443333821033213
-0.012264074034169998
-0.009350936230874112
-0.0056577878452662425
-0.001159034781958566
0.0041602894860613355
0.010304622945133422
0.017268116910138038
0.025034984196810505
0.03357992211066989
0.042868583930892275
0.0528580774796816
0.06349747383722058
0.07472831322765441
0.08648509858608054
0.09869577039179142
0.11128215911158
0.12416041413413251
0.13724141048051355
0.15043113692382962
0.16363107151086786
0.17673855291147844
0.18964715858777498
0.20224710353678416
0.21442567637988408
0.22606773290711749
0.23705627086826334
0.2472731138172308
0.25659973604760145
0.26491826483595626
0.27211269984245884
0.2780703918156
0.28268382256755337
0.28585272401422646
0.28748656407608464
0.2875074094147967
0.2858531474694328
0.28248101176544493
0.2773713048844903
0.27053115454614596
0.26199807421987265
0.2518430377511935
0.24017272770874074
0.22713059160724475
0.21289635109328528
0.19768366633399836
0.1817357653356712
0.16531900163709215
0.14871449050328778
0.1322081724599696
0.1160798390775963
0.10059180598828564
0.08597801436987375
0.07243437368023727
0.06011111965293805
0.04910784909319082
0.039471704563624234
0.0311989197567252
0.02423961414651801
0.018505376460498504
0.013878853983854638
0.010224333040038794
0.007398211624953696
0.005258355314396909
0.0036715764602221397
0.0025188271058966503
0.0016980665498667895
0.001125075139204927
0.0007326801308267093
0.0004689078639798257
0.00029443874569989246
0.00017920713785170034
9.607023611510466e-05
4.089724130501125e-06
-3.763074293140636e-08
-5.166876942393664e-06
-2.1262879223766754e-05
-5.943969306249998e-05
-0.00013638374352264082
-0.0002746747659548426
-0.0005022415110056272
-0.0008508175790255341
-0.001353454148780961
-0.002041313361209538
-0.0029400922151537547
-0.0040664890159292045
-0.0054251160570109
-0.007006192005060466
-0.00878423486985885
-0.010717845630645073
-0.012750546627526189
-0.014812535500518897
-0.01682314519842172
-0.018693766356272776
-0.020330987013566722
-0.02163972906233739
-0.022526202022153507
-0.022900543861765744
-0.022679068123640414
-0.021786081109013887
-0.020155269092185492
-0.017730682153820256
-0.014467358460163362
-0.010331641863994738
-0.005301248270020547
0.0006348658739523391
0.007476784631339162
0.015214021423283522
0.023825980971276084
0.03328246645878669
0.04354421018974614
0.05456341131648675
0.06628426861069964
0.07864349982696316
0.09157084208318833
0.10498953000036985
0.1188167502489385
0.13296407277247188
0.1473378604179797
0.16183966009887285
0.17636658004757913
0.19081165927384805
0.20506423713093408
0.21901033301251913
0.23253304877412714
0.24551300961147104
0.25782886293847784
0.2693578593522618
0.2799765450299953
0.2895616007101468
0.29799086838800076
0.3051446123226182
0.31090706484768454
0.3151683083012095
0.3178265401954397
0.3187907572409787
0.3179838725877648
0.3153462474755186
0.3108395720488223
0.304450970590323
0.29619713641405265
0.28612822675295335
0.2743311772150825
0.26093204097699024
0.24609693399387084
0.23003118797803693
0.21297638807401234
0.1952051054178673
0.1770133198003508
0.15871074765169188
0.14060952011875377
0.12301186553944157
0.10619761208761026
0.09041241810105126
0.07585764656396639
0.06268272119086732
0.05098063502751018
0.04078703377078085
0.03208297780035665
0.024801124475904848
0.018834707604089614
0.014048381001416449
0.010289798590803863
0.007400771184702563
0.00522698441097115
0.0036255555922985764
0.0024700851263234334
0.0016532362463691956
0.0010871751457575312
0.0007023517705997652
0.00044499772468363844
0.00027300583261192184
0.0001470614781791088
6.232176886799234e-06
-7.613193023204574e-08
-9.508869122227215e-06
-3.7673687702973686e-05
-0.00010194597784673743
-0.0002272799341534818
-0.0004460178490211792
-0.0007964669579954178
-0.0013202016462338833
-0.0020583217103568663
-0.003047086652259548
-0.0043134526359558025
-0.005871048314881498
-0.007717046710319123
-0.009830248062372619
-0.012170516527879843
-0.014679544601702435
-0.017282778955777046
-0.01989224539436651
-0.022409963472175106
-0.024731638855450624
-0.026750353799079498
-0.02836003070437362
-0.029458508338258492
-0.029950134701310183
-0.029747837466166435
-0.028774678222199625
-0.026964929030240333
-0.024264729622840195
-0.020632392871626243
-0.016038427372499515
-0.01046534173123346
-0.003907287647787967
0.003630409983635189
0.012131796718002895
0.021570874957643368
0.031912209224853
0.04311153227005719
0.055116338624402565
0.06786645584273136
0.08129458653646274
0.09532681659181852
0.1098830869043458
0.12487762769180072
0.14021935608683142
0.15581223933287613
0.17155562755679124
0.18734456179829737
0.2030700647633452
0.2186194236678462
0.23387647660085953
0.24872191614044437
0.26303362660943863
0.27668707449625507
0.28955577532941723
0.30151186480058645
0.3124268072161914
0.32217228030204814
0.33062128161221516
0.33764950755806944
0.3431370601554472
0.34697053721550475
0.3490455565563821
0.34926975113726766
0.34756624693030524
0.3438775963376515
0.33817008561282363
0.3304382656214524
0.3207094748538782
0.3090480390277155
0.2955587539895515
0.28038920244891147
0.2637304366300997
0.2458155934313716
0.2269161066097447
0.20733534378696475
0.18739971532357733
0.16744755617065468
0.1478163402053937
0.1288290146447329
0.1107804074886401
0.09392473890032897
0.07846524399567265
0.06454678638086409
0.05225211477781144
0.041602103393408835