# vtk DataFile Version 4.1 
COMMENT
ASCII
DATASET STRUCTURED_POINTS 
DIMENSIONS 100 100 1 
ORIGIN 0 0 0
SPACING 0.12693303650867893 0.12693303650867893 0 
POINT_DATA 10000
SCALARS U double 1
LOOKUP_TABLE default
0.0
0.0
0.0
0.0
0.0
0.0
0.0
0.0
0.0
0.0
0.0
0.0
0.0
0.0
0.0
0.0
0.0
0.0
0.0
0.0
0.0
0.0
0.0
0.0
0.0
0.0
0.0
0.0
0.0
0.0
0.0
0.0
0.0
0.0
0.0
0.0
0.0
0.0
0.0
0.0
0.0
0.0
0.0
0.0
0.0
0.0
0.0
0.0
0.0
0.0
0.0
0.0
0.0
0.0
0.0
0.0
0.0
0.0
0.0
0.0
0.0
0.0
0.0
0.0
0.0
0.0
0.0
0.0
0.0
0.0
0.0
0.0
0.0
0.0
0.0
0.0
0.0
0.0
0.0
0.0
0.0
0.0
0.0
0.0
0.0
0.0
0.0
0.0
0.0
0.0
0.0
0.0
0.0
0.0
0.0
0.0
0.0
0.0
0.0
0.0
6.419463337917521e-12
-3.148652765629872e-09
-3.457987249450873e-08
-1.9476490916974469e-07
-7.875776427309895e-07
-2.5781036734866272e-06
-7.250286957437436e-06
-1.8138031399751585e-05
-4.1289762647616016e-05
-8.68911360156446e-05
-0.00017101346573014553
-0.0003175819282082079
-0.000560378271686233
-0.000944821838259975
-0.0015292252102366655
-0.002385209459104891
-0.0035969964078908104
-0.005259372187950318
-0.007474231000217224
-0.010345747369472
-0.013974372148807788
-0.018449983615586654
-0.023844633314254036
-0.030205393988044067
-0.03754783676827203
-0.04585063573220115
-0.05505172478718994
-0.06504632401567718
-0.07568702252156291
-0.08678596599552799
-0.0981190626392948
-0.10943200178788845
-0.12044778371290758
-0.1308753915537996
-0.14041919870755898
-0.14878869600754027
-0.15570813904810868
-0.16092575191834357
-0.16422217344581225
-0.16541788975333632
-0.1643794568811344
-0.161024374684103
-0.15532452459624482
-0.14730812688074998
-0.13706020670851515
-0.12472158315839797
-0.11048641248069932
-0.09459832913341523
-0.07734523831166215
-0.05905282545611785
-0.04007686506521414
-0.020794436119321667
-0.0015941866619808857
0.01713416381435969
0.035010839920608966
0.05167723811198641
0.0668069993735428
0.08011650579652232
0.09137434245234867
0.10040925289305903
0.10711613436693479
0.11145967080571842
0.11347528757845458
0.11326722826571954
0.1110036941139237
0.10690914387924358
0.1012540175627463
0.09434231399379295
0.086497610499699
0.0780482523549078
0.06931254696033569
0.060584856555796325
0.05212347588827445
0.04414109117649025
0.036798433874251586
0.030201470467517293
0.02440213192659583
0.01940223262588846
0.01515992901848951
0.01159789908923809
0.008612438780083427
0.006082872882761334
0.0038809951958004283
0.0018805514386844744
-3.309946482781397e-05
-0.0019531796630277913
-0.003942043018674957
-0.006023209162419839
-0.008176535146477237
-0.01033831151558718
-0.012407592688281921
-0.014258949519629568
-0.0157602206910394
-0.016791915809411213
-0.01726231707255678
-0.017106479677057345
-0.01623856324377128
-0.014363464505578002
-0.010348118605117885
-0.000451456688427339
1.3329232908022633e-11
-1.1095071391507858e-08
-9.88840380199799e-08
-4.926057161758199e-07
-1.8192209665424328e-06
-5.53008496637276e-06
-1.4590390073904544e-05
-3.448211477930651e-05
-7.452850961566347e-05
-0.00014948405873602892
-0.00028125705226835526
-0.0005005564377773456
-0.0008481970878309949
-0.0013757733765362593
-0.002145430364998751
-0.0032285276418504076
-0.004703097001087465
-0.006650128034258843
-0.009148856620646323
-0.012271359866011187
-0.016076858948615217
-0.020606185301603856
-0.025876869207726645
-0.03187926419602976
-0.03857403317861292
-0.04589120543635858
-0.05373088228936119
-0.06196553871925852
-0.07044375170293093
-0.07899509370136173
-0.08743586777885588
-0.09557533128983034
-0.10322205641560508
-0.11019010368652142
-0.11630473276131474
-0.12140743607370129
-0.12536014842893134
-0.1280485528679602
-0.12938446488483246
-0.12930732952430035
-0.12778490654598795
-0.1248132465576758
-0.12041607572800106
-0.11464370917948863
-0.10757160485098284
-0.09929865234640689
-0.08994526718773672
-0.07965133232066009
-0.06857399825547648
-0.05688532368993083
-0.04476971297088431
-0.03242108869419982
-0.020039730627066852
-0.007828719254437084
0.004010053912940351
0.015280305700513003
0.025796149340254437
0.035387121821405666
0.04390324994852615
0.0512198920001216
0.05724205047423346
0.061907842241141944
0.06519084216186621
0.06710108451241968
0.06768460488241694
0.06702151803005274
0.06522273514219255
0.062425508796369135
0.05878804353855447
0.0544834223784578
0.04969308435346987
0.04460006527837984
0.03938220693927562
0.03420556858393645
0.02921834207815054
0.02454565743346369
0.02028572229464845
0.016507708634434126
0.013251637025551813
0.010530212514039385
0.008332199998044167
0.006626612823803157
0.005366865693615533
0.004494206684186076
0.003940184271506031
0.0036284883517483445
0.0034770007843358776
0.003401063936412934
0.0033186843230561987
0.003157667333367374
0.00286375229550414
0.002408034628690716
0.0017916831802106906
0.0010464526116666687
0.00023094435958327566
-0.0005745884484271014
-0.0012663454502273284
-0.0016867331229321139
-0.0015191275457695718
-7.661679509034953e-05
1.4294150630374103e-11
-3.667166525967713e-08
-2.8807182254139726e-07
-1.3276434237505888e-06
-4.63225918394818e-06
-1.3462433194881402e-05
-3.4222945911049716e-05
-7.836523082572443e-05
-0.0001648093501487325
-0.00032275113854124426
-0.0005945966771359222
-0.0010386553809533928
-0.0017311493631964187
-0.0027670804325774915
-0.004259547752590131
-0.006337227549056245
-0.009139898123022908
-0.012812096329562017
-0.017495198114818093
-0.02331839807451408
-0.030389198158365875
-0.03878408817665847
-0.048540104587685776
-0.059647892315634936
-0.07204677794263735
-0.08562220768573285
-0.10020572872867632
-0.11557751615296198
-0.13147128597098046
-0.14758129987448088
-0.16357106704976204
-0.17908328605068424
-0.19375054454307528
-0.20720630287296957
-0.21909572284603027
-0.22908595865224915
-0.2368755950564302
-0.24220299173808996
-0.24485336584417158
-0.24466451245421045
-0.24153112111731928
-0.2354076935927834
-0.22631010232552518
-0.21431585100144301
-0.1995631086387803
-0.1822485886809709
-0.16262433661805115
-0.14099347634683562
-0.11770494966147559
-0.09314726805885816
-0.0677412847594638
-0.04193199097979924
-0.01617934770574416
0.009051813760638228
0.03330274881620631
0.05613247884432645
0.07712997335483669
0.09592651052351626
0.11220777174699653
0.12572510277282464
0.13630526592460884
0.1438579385419286
0.14838020818136607
0.14995739912285289
0.14875975215963735
0.14503477002250842
0.1390954135155942
0.13130474664789787
0.12205802312424707
0.11176351292956029
0.10082352227240764
0.08961701950076446
0.0784850370060831
0.06771961447438739
0.0575565668796431
0.04817191315612232
0.03968149487261901
0.03214321140257103
0.025561390878999876
0.019893023137719252
0.015055776045914479
0.010937780726735916
0.007409041849405726
0.004334027313415706
0.001584611628763439
-0.000947782877075769
-0.003342169577618404
-0.005641366370058526
-0.007849711955611148
-0.009935594616265758
-0.01183862603377674
-0.013480591649085265
-0.014778567957593771
-0.015657671414730286
-0.0160590246942977
-0.015932861299230265
-0.015187944277305923
-0.013508159855122865
-0.009763239691366062
-0.00042535726245287623
-4.546022150702372e-11
-1.0980488206740748e-07
-7.747115511842989e-07
-3.3182938808135513e-06
-1.0935257264946897e-05
-3.0301140228444304e-05
-7.390092841819804e-05
-0.00016306867393117152
-0.00033157397658680447
-0.0006294149021764925
-0.0011263162478127992
-0.0019143250962087761
-0.003108873540858565
-0.004847757814223735
-0.007287661250109925
-0.010598104048750745
-0.014952999532732285
-0.020520290881014012
-0.027450391404011426
-0.03586432071304731
-0.045842497539947256
-0.0574151121003914
-0.07055486642466137
-0.08517266161981771
-0.10111655563027414
-0.11817404524625894
-0.13607747132988113
-0.1545121304307227
-0.1731265155016489
-0.19154401138718244
-0.20937533747442333
-0.22623105432323062
-0.2417335226543973
-0.25552780865158514
-0.2672911552871164
-0.27674077224957805
-0.28363982580406005
-0.2878016257789767
-0.2890921037469795
-0.2874307508317313
-0.2827902341721628
-0.2751949384805912
-0.26471868525091263
-0.251481869798342
-0.23564822871879915
-0.21742141100318763
-0.19704147836841832
-0.1747814076821383
-0.15094361380785162
-0.12585645778883922
-0.09987065595138278
-0.07335546317093829
-0.046694471236736916
-0.020280844199102595
0.005488189682162131
0.030217751371652047
0.053522748659224455
0.0750363847122673
0.09441968056561334
0.1113718184245056
0.1256409482301379
0.1370349179464295
0.14543120773818405
0.15078519777744104
0.15313581394112108
0.15260761241353835
0.1494085150399011
0.1438227091688662
0.13619867105927994
0.12693282098949576
0.11644989695228923
0.10518164025391309
0.09354570784127023
0.08192676708975444
0.0706614425545613
0.06002819921716798
0.050242472841531355
0.04145656494704027
0.033763190601198936
0.027201241762808193
0.0217623616962204
0.017397274987569003
0.01402136754035867
0.011519614538309311
0.009751470259194256
0.008556644558456743
0.007762708034948702
0.007195138658734794
0.006689755489949621
0.006106586146561614
0.005343307892501226
0.0043458045559904
0.003113432877502657
0.0016976002420047123
0.0001946026533341579
-0.001261661536580501
-0.0024916488869912027
-0.003209936768608768
-0.002835942941522824
-0.00013257264180371528
-3.673818401117245e-10
-3.037811264220283e-07
-1.9596689581994575e-06
-7.873439353404885e-06
-2.465932425027657e-05
-6.54678019871623e-05
-0.00015383393299100864
-0.00032839278586052704
-0.0006480632297679799
-0.001197065535197569
-0.0020889668307813463
-0.003468888792770731
-0.0055130912549662126
-0.008425363887950224
-0.012429988412175491
-0.017761427205525884
-0.024651290753656973
-0.03331347708712059
-0.04392861353627668
-0.05662903597039034
-0.07148550604571438
-0.08849670614416066
-0.10758229370134988
-0.12857997986719102
-0.15124676272888554
-0.17526412992680748
-0.2002467788113499
-0.22575420352592776
-0.25130437612679213
-0.27638870208651284
-0.30048745083214
-0.3230849359691302
-0.34368383176497597
-0.36181814632577713
-0.3770645131523623
-0.3890515993776428
-0.39746755195217426
-0.4020655064248799
-0.40266726362808225
-0.3991652967188901
-0.3915232856251234
-0.3797753901858584
-0.3640244700860587
-0.3444394423207881
-0.3212519387032112
-0.2947523900563183
-0.2652856232225186
-0.23324601473610473
-0.19907220366856965
-0.16324132849100673
-0.12626272157146773
-0.08867097299411036
-0.05101826564235564
-0.013865888702773447
0.022225140681290115
0.056704376248379804
0.08904312924390577
0.11874642971062234
0.14536555198354956
0.16851078337383546
0.1878639966064332
0.20319046745611535
0.21434926857167294
0.22130148083932782
0.2241154103343355
0.22296800103110626
0.21814171285639739
0.21001631353352487
0.19905532846868176
0.1857873107035
0.1707826153293953
0.15462694053604026
0.137893445742579
0.12111566322173997
0.10476356611508213
0.08922495815283207
0.07479379537240122
0.061666217674893706
0.0499441205629694
0.03964523216356626
0.030718042208114676
0.023059633501817986
0.016534464075015652
0.01099234294974051
0.0062841348232664015
0.002274071300818215
-0.00115204903090226
-0.004082993060128343
-0.006582208308901717
-0.008691022459422222
-0.010433653033428449
-0.011822662007042685
-0.012863631945930414
-0.01355782674635092
-0.013900326183110729
-0.013865607693998364
-0.01335447336913233
-0.012022521492491452
-0.008759806538309035
-0.00038074514915694763
-1.5655593534059605e-09
-7.841711629531855e-07
-4.681481164938931e-06
-1.7753362192087544e-05
-5.3046908260505454e-05
-0.00013527804693169992
-0.00030679155237209506
-0.0006343407780673106
-0.001215886119927671
-0.002186343854923885
-0.0037210984795655135
-0.006036167965081676
-0.009384189141414234
-0.014045835135843674
-0.02031682054487722
-0.02849120672275343
-0.03884220279210038
-0.05160199717225558
-0.06694230619372792
-0.08495727920324053
-0.10565017204020778
-0.12892483478127614
-0.15458261082211477
-0.1823247718718411
-0.21176017116590187
-0.24241742742434644
-0.2737606820693153
-0.3052078136942483
-0.33614994459010417
-0.36597112133969745
-0.39406717510138733
-0.41986294387921286
-0.4428272453115094
-0.4624852030281111
-0.47842773491673773
-0.49031819468567356
-0.49789631045809457
-0.5009796814813249
-0.49946317552876596
-0.49331661697341866
-0.4825811723509783
-0.46736483104777715
-0.44783734846375034
-0.42422497243690516
-0.39680521528458734
-0.3659018673479344
-0.3318803766294
-0.29514364565471024
-0.2561282233575397
-0.21530079872738608
-0.1731548364778695
-0.13020713583593163
-0.08699404519647347
-0.044067032200608834
-0.001987296035027643
0.03868087771214177
0.07737827357889769
0.11356058521656749
0.14670998513752734
0.17634831162694922
0.20205156383119344
0.22346517848683287
0.2403193392565817
0.2524433645390233
0.25977805777059665
0.26238481272085723
0.2604502709425294
0.2542854517727393
0.24431853404026319
0.2310808717945764
0.21518636992785053
0.1973050043469192
0.17813198827692303
0.15835476398753592
0.13862050297215264
0.11950697818974321
0.10149941111345312
0.08497516363026407
0.07019704209431632
0.05731474453734651
0.04637292676786324
0.03732377557601805
0.03004200081338586
0.024340721862482224
0.01998755787003689
0.016720968792422224
0.014267222184325256
0.012358145795872345
0.010749166058529625
0.009236309667253658
0.007670213405785302
0.005965050705603879
0.004100836931743804
0.0021189714151242938
0.00011351720246930001
-0.0017740315989952053
-0.0033372807466698438
-0.004220844194812314
-0.0036821946421908896
-0.00016707931967715174
-5.281764377403606e-09
-1.9030927301755289e-06
-1.061143260794681e-05
-3.818108188011099e-05
-0.00010921897141531116
-0.0002682217048373768
-0.0005882647245846055
-0.0011800798957098749
-0.0022001509478535874
-0.0038562405709317293
-0.006408812591799299
-0.010167146649540834
-0.01547951934559666
-0.02271755273464315
-0.03225558735405297
-0.044446599723377986
-0.0595966525040662
-0.07794007747781388
-0.09961753134845733
-0.12465875940404204
-0.15297141243344986
-0.1843366665999016
-0.2184117764357228
-0.25473912087091966
-0.29276083661339947
-0.33183780570432964
-0.3712715861587978
-0.41032783888182356
-0.44825988923035254
-0.4843312380924462
-0.5178360725971682
-0.5481170892945088
-0.5745802059473977
-0.5967059811140568
-0.6140577692423318
-0.6262868051058644
-0.6331345325109046
-0.6344325698697901
-0.6301007439173749
-0.6201436286602552
-0.6046460063946489
-0.5837676280254154
-0.557737597083789
-0.5268486409905202
-0.4914514684330096
-0.4519493463953986
-0.4087929666709018
-0.3624756111372851
-0.31352856871109863
-0.26251670544842326
-0.21003404341729684
-0.1566991646148473
-0.10315022466308355
-0.050039339274193774
0.001973902647169409
0.05223003814684931
0.10007865225826108
0.14488877923482618
0.18606085385372187
0.22304016347428277
0.25533159565227376
0.28251528809068877
0.30426257713480526
0.3203514244231284
0.33068030187695086
0.3352793609966767
0.3343176331533977
0.3281050308111348
0.3170880676057659
0.30183850300858095
0.28303455224481944
0.261434882358607
0.237846324299684
0.21308702610124453
0.1879475702356645
0.16315324541629997
0.1393310243452582
0.11698467476478595
0.0964807014463817
0.07804649096632825
0.06178029322497799
0.04767086945915051
0.03562319224341006
0.025485875628157986
0.017076239941891082
0.010200014660949084
0.004664344107518251
0.00028452042605008006
-0.0031137476391721068
-0.0056940539958742304
-0.0076086842386210414
-0.00899618033872226
-0.009976654172381005
-0.01064501723924518
-0.011061152450949902
-0.01123045539288352
-0.01105140910189555
-0.010162174766294602
-0.007505672590633492
-0.00032521808898307975
-1.5487206216128256e-08
-4.3673316680761785e-06
-2.2906980141805948e-05
-7.853505858001602e-05
-0.00021569609645997844
-0.000511205935017759
-0.0010860742906184221
-0.0021165971501019
-0.003842628657906283
-0.006570924056194853
-0.010671825709075603
-0.01656829795995655
-0.024717281626529135
-0.03558436748778258
-0.04961370523150633
-0.06719572433258622
-0.08863555539390224
-0.11412497937974815
-0.1437203344325249
-0.17732815890755
-0.2146995541438812
-0.25543342500626026
-0.29898800054122987
-0.3446994257853124
-0.3918057924965244
-0.43947475458856117
-0.486832841005847
-0.5329947040885351
-0.5770907842163027
-0.6182921876979982
-0.6558319231535094
-0.6890219871633761
-0.7172661063617327
-0.7400682129484212
-0.757036944537936
-0.7678866149117756
-0.7724352022895467
-0.7705999522936855
-0.762391201856004
-0.7479050065594778
-0.7273151057248198
-0.700864694472347
-0.6688583963433387
-0.6316547488424504
-0.5896594311425545
-0.5433193806770557
-0.4931178649641011
-0.4395704975823545
-0.3832221131489443
-0.3246443457308489
-0.2644336888681324
-0.2032097543683178
-0.14161339317025215
-0.0803042979066771
-0.019957677615567163
0.038740414072260504
0.09509949838073938
0.14843318813526715
0.1980700591802882
0.2433669951881932
0.2837249370738522
0.31860673425556496
0.3475565237575991
0.3702197721979236
0.3863628315695637
0.3958906167890497
0.39886085019935735
0.39549327362659353
0.38617233263491724
0.37144210693274554
0.35199269461928673
0.328637837802593
0.30228427001839536
0.273894026708842
0.24444173090463564
0.21486957191496497
0.18604323827479718
0.15871233324396639
0.13347868152748307
0.11077536079382301
0.09085827527259624
0.07381075265968269
0.05956020566869147
0.04790461300100225
0.038545664035439395
0.031125000358989796
0.025260073699927738
0.02057662054537496
0.016735478412221356
0.013452295822355033
0.010509518731830123
0.007760828799182634
0.005129005167727572
0.002599206719149994
0.00021161156859059364
-0.0019380472379882782
-0.0036704689392379236
-0.004624137426720238
-0.004004805844989886
-0.00017838026071393596
-4.102694977668562e-08
-9.52150659863878e-06
-4.7246706849936155e-05
-0.0001548946303473286
-0.00040948165285521857
-0.0009383669885997636
-0.0019341070410202315
-0.003666444827467011
-0.006488587981390505
-0.010835326887983719
-0.01721145242555241
-0.02617019378978614
-0.038282780544159074
-0.05410149189043883
-0.07411948005287546
-0.0987311099058067
-0.12819650332850693
-0.1626134626368091
-0.20189908824297653
-0.24578235350020045
-0.2938078120011516
-0.3453496265751376
-0.3996343248478474
-0.45577015930799186
-0.5127806935998058
-0.5696402295462277
-0.6253088854815878
-0.6787654775615958
-0.7290367811736759
-0.7752222041012878
-0.8165133416670818
-0.8522082741471508
-0.8817207883393396
-0.9045849494690176
-0.920455616717106
-0.9291055920051088
-0.9304201276337126
-0.9243895061384031
-0.9111003577085312
-0.8907263082205932
-0.8635184642806711
-0.8297961486645992
-0.7899382062314046
-0.7443751109662241
-0.6935820218635649
-0.6380728601244987
-0.5783954127832669
-0.5151274077857653
-0.4488734515806029
-0.38026267106223705
-0.3099468558516333
-0.23859885335981926
-0.16691092746452996
-0.09559275259816138
-0.025368680701949618
0.04302610723856076
0.10885096453824225
0.17136704511888948
0.2298468172983694
0.2835860835176419
0.3319186264281161
0.37423340536498423
0.4099939718494723
0.43875946641985747
0.4602062209071484
0.4741486516734575
0.48055783315784806
0.47957593791919617
0.47152467112775465
0.4569059589847118
0.43639350109579245
0.4108143732291868
0.381120649505719
0.34835195382018425
0.31359087092082344
0.27791413703134676
0.24234334343289302
0.20779935386444784
0.1750645894315339
0.14475665609423272
0.11731547797705155
0.09300431866627834
0.07192315566714004
0.054031256095536405
0.039174892147571944
0.02711616205509795
0.01755979272587634
0.010176256783965363
0.004621032630755376
0.0005508848654163021
-0.002361635530724774
-0.0044146351370698755
-0.0058640951112144445
-0.006911933659368051
-0.0076935929866661186
-0.008258469665220206
-0.008522169036718364
-0.008135526499554046
-0.006140616728366958
-0.0002650104038704307
-1.002468963472156e-07
-1.97976681019941e-05
-9.337229823170624e-05
-0.00029360684630841427
-0.000748743216577265
-0.0016618360787841928
-0.0033276013692402104
-0.006142927588346045
-0.010607621321371006
-0.01731304027266815
-0.026917885553729134
-0.04011226908654678
-0.05757289434820291
-0.07991348646084231
-0.1076352824933435
-0.14108237851410635
-0.18040608687452753
-0.2255413420675189
-0.2761968153317942
-0.33185897335600417
-0.39180903186211485
-0.4551507443775596
-0.5208463019021575
-0.5877573133658309
-0.6546878555975637
-0.7204268596462767
-0.7837875574757925
-0.8436422681290707
-0.8989513834922803
-0.9487859641126007
-0.9923438359817448
-1.0289594675375473
-1.0581081945113604
-1.079405551790302
-1.0926025766749887
-1.0975779814033524
-1.0943280706444556
-1.0829552174380257
-1.0636556226566378
-1.036706980033021
-1.002456560096844
-0.9613101185088881
-0.913721931581132
-0.8601861667188424
-0.8012297091620988
-0.7374064887080586
-0.6692932802766661
-0.5974868889875781
-0.5226025723700412
-0.445273497962826
-0.36615098263729706
-0.2859052097084454
-0.20522607120502837
-0.12482373644690938
-0.04542850649240892
0.03221051919938327
0.10732845686261054
0.17914982420965253
0.24689635622008846
0.30979783556025997
0.36710619687854346
0.41811297815160403
0.4621699406545375
0.49871236436237293
0.5272841604039322
0.5475635521399798
0.5593877005467495
0.5627743380850193
0.5579382838032491
0.545300693371115
0.5254890900545133
0.49932664398576426
0.46780981073638245
0.4320742779352653
0.3933501568632944
0.3529084389439479
0.31200184176268814
0.2718041902534261
0.23335326253379657
0.19750237600797801
0.16488568502492265
0.13590105447186737
0.11071246414943503
0.08927140737322903
0.07135411588690171
0.05660924267724432
0.04460939716507931
0.03489996487790289
0.02703992508942993
0.02063153021262514
0.015338139827405168
0.010891622341541054
0.007092206016472568
0.003804611554417772
0.0009555890965819504
-0.001458441251031473
-0.003335658675416216
-0.0043679530943282014
-0.003812052117738489
-0.0001674390122303763
-2.2886542401192475e-07
-3.9389707005445554e-05
-0.00017725966417202267
-0.000536009711034635
-0.0013211258394173581
-0.002844285788679118
-0.0055397486854340955
-0.009969411720243656
-0.01681302740617115
-0.026842106804374634
-0.040878464119976796
-0.059740702452377975
-0.08418376310405552
-0.11483766556069072
-0.15215164114781385
-0.19634908083995803
-0.2473972862025603
-0.3049942177634229
-0.36857257440774843
-0.4373198662238172
-0.5102118422269462
-0.5860557970910324
-0.6635399195032565
-0.741284907230076
-0.8178944678058988
-0.8920019384724465
-0.9623109855321523
-1.027629087421956
-1.086893195663293
-1.139187556009763
-1.1837541340441209
-1.219996419421459
-1.2474775889147312
-1.2659141070908555
-1.275165855842785
-1.2752238320488747
-1.2661963568172687
-1.2482946177688696
-1.221818231846168
-1.1871413809283273
-1.144699943587573
-1.0949799283931227
-1.038507409798947
-0.9758400776843497
-0.9075604356453741
-0.8342706198671369
-0.756588757940829
-0.6751467430259104
-0.5905892607648483
-0.5035738717153418
-0.41477191822709714
-0.3248699893882312
-0.23457163918253418
-0.1445990105220053
-0.05569397188326339
0.03138167374757336
0.11584739133187837
0.1969070437375427
0.2737544763661725
0.3455820604055527
0.41159262638944033
0.47101508335535097
0.523123805564003
0.5672615713204133
0.602865459590205
0.6294946667377042
0.6468587325779522
0.6548442160263851
0.6535375066145391
0.6432412783902649
0.6244821616305345
0.5980075770853456
0.5647703585886332
0.5259007422629494
0.4826664312288508
0.4364226214693405
0.3885549497002552
0.34041916176728193
0.2932817966870677
0.2482662749224813
0.20630844781690216
0.1681249219036278
0.1341963670560516
0.10476664548753284
0.07985710549071802
0.05929396078001141
0.04274553010104029
0.029765415255152382
0.01983753706515132
0.01241930427885178
0.006979939151431082
0.0030319705130192535
0.0001550499763027231
-0.0019872914937827365
-0.003634879746851502
-0.004913960890264975
-0.005796818085513698
-0.005996043604141916
-0.004711930990758493
-0.00020236710241205912
-4.925478818979497e-07
-7.520905399938277e-05
-0.0003240000290353454
-0.000944293323579312
-0.002253336072440052
-0.004712176285241427
-0.008937263791264543
-0.015694280168321164
-0.025871534635386446
-0.04043341912973223
-0.06035758570764051
-0.08656206680762325
-0.11983005988368813
-0.16074035592205746
-0.2096104788565912
-0.26645779441425266
-0.33098152993905366
-0.4025662281509272
-0.4803049873604636
-0.5630391633111592
-0.6494101468642994
-0.737918397885956
-0.8269850329548913
-0.9150118033896176
-1.000436110031897
-1.0817786369627755
-1.1576821257025394
-1.2269406644647634
-1.288519577625491
-1.3415665431588646
-1.3854149389493233
-1.4195806379531704
-1.4437535622427977
-1.4577852960614976
-1.4616739768482927
-1.4555475563871123
-1.4396463729189197
-1.4143058154281087
-1.3799397048980047
-1.337024871602083
-1.2860872766863738
-1.2276899121864315
-1.1624226162618418
-1.090893858734031
-1.013724484197403
-0.9315433438848484
-0.8449847007899266
-0.7546872529331422
-0.6612945848070753
-0.5654568247367723
-0.4678332540775507
-0.3690955809814836
-0.26993155536982966
-0.17104856176818678
-0.0731767826697769
0.022928521742931172
0.11648611837820762
0.2066898325424375
0.29271207518234615
0.3737104376877529
0.4488378886705948
0.5172570142888235
0.5781585788895023
0.6307844324199734
0.6744544480498644
0.7085967412840903
0.7327799188772306
0.7467455684529694
0.7504386834984905
0.7440332964063299
0.727950349391129
0.7028648564249246
0.6696997743407602
0.6296047557752957
0.5839191038442157
0.5341197318829125
0.4817566251235468
0.4283800080492896
0.3754648863549766
0.3243395729823949
0.276124963004058
0.23169052059425813
0.19163116979577619
0.15626673364229762
0.12566264676126357
0.09966792193799166
0.07796434349483726
0.06012000775379666
0.04564077241549419
0.03401471971396967
0.024746920192189076
0.017384042186649826
0.011530259759796055
0.00685743403584468
0.0031142920016791324
0.00014278992876840904
-0.0020827062162668904
-0.003365261757080595
-0.0031081040970887207
-0.00013503409470066704
-1.005816805808741e-06
-0.00013816350529321955
-0.0005713950216948213
-0.0016082842998398578
-0.0037212995401487677
-0.007568256265802343
-0.013992621917876806
-0.02399866970899031
-0.03870102472139551
-0.05925239381679408
-0.08675684966970583
-0.12217828150407348
-0.1662542174109536
-0.21942422108853835
-0.2817798203066864
-0.3530399561687364
-0.4325528074678166
-0.5193220234949643
-0.6120532268543026
-0.709215291257678
-0.8091103681641485
-0.9099468224748598
-1.0099099624269292
-1.107226508262195
-1.2002199450965234
-1.2873550891745353
-1.3672712504826225
-1.438804232136525
-1.5009980421828297
-1.5531076114675666
-1.594594037408629
-1.6251139440373603
-1.644504502916338
-1.652765534752511
-1.6500399397166545
-1.6365935110383116
-1.6127949900285568
-1.5790970339007278
-1.5360185982482408
-1.4841290876362396
-1.4240345016061744
-1.35636569882841
-1.2817688174334596
-1.2008978223868112
-1.1144090985581487
-1.0229579682028342
-0.9271969812516492
-0.8277758034484285
-0.7253425083545507
-0.6205460619316789
-0.5140397702163887
-0.40648543898819817
-0.2985579669907877
-0.19095005931137687
-0.08437670384030613
0.02042099856107429
0.1226731185261129
0.22157982684034422
0.31631255270157016
0.4060179961450609
0.4898256264051269
0.5668592546057496
0.6362531547000047
0.6971730015282649
0.7488415851385148
0.7905688429443217
0.8217852395566685
0.842076953438389
0.8512207582026501
0.8492159921672623
0.8363106800295805
0.8130187869217238
0.7801258062904202
0.7386804304201926
0.6899709044645211
0.6354857627175978
0.5768599077571331
0.5158083295972535
0.4540510823023235
0.39323433873008945
0.33485329995490215
0.28018327113993124
0.23022512676645326
0.1856704947122465
0.14689021838996555
0.11394712949775786
0.0866312316790013
0.06451259234151316
0.0470051523317796
0.03343375152705704
0.02309711799054632
0.015321242065858201
0.009500094629590774
0.0051237151499447155
0.0017973364414619831
-0.0007397790092373635
-0.0025791937164439107
-0.0035637687024032603
-0.0031285576135599755
-0.00013370140914635578
-1.9588612066493936e-06
-0.0002447696823436224
-0.0009741514253028286
-0.002652678979179094
-0.005959770690284412
-0.011801304929048892
-0.021289951795600736
-0.03569306310489785
-0.05635158407721339
-0.08457843247579647
-0.12154813019582233
-0.16819064492290203
-0.2251014057240876
-0.2924767296054572
-0.3700801287593713
-0.4572409188921105
-0.5528828798021986
-0.6555778938540413
-0.763617734930616
-0.8750965124593728
-0.9879965422979057
-1.1002713737861185
-1.2099210744913238
-1.3150564047038336
-1.4139499968748144
-1.505073949419474
-1.587124271684042
-1.659033353142958
-1.719972090236527
-1.7693435284058991
-1.8067699160689883
-1.8320749743309264
-1.8452630090048505
-1.846496269440607
-1.8360717215142048
-1.8143981705447838
-1.7819744566902636
-1.7393692572478299
-1.6872028696033294
-1.6261312148203921
-1.5568321928459767
-1.4799944330289363
-1.39630841485093
-1.3064598802946046
-1.2111254182161932
-1.1109700698466025
-1.0066467807919297
-0.8987975065304281
-0.7880557634243835
-0.6750504037397859
-0.5604103791175024
-0.4447702403144597
-0.328776099718243
-0.2130917550601415
-0.09840463610212558
0.014568810310503184
0.12507873752320883
0.23233902320082672
0.3355264717232415
0.43378272788256816
0.5262195786337294
0.6119283281395858
0.6899938829142075
0.7595140537551078
0.8196243443123573
0.8695281317380169
0.9085316427919841
0.9360824978828671
0.9518098723463682
0.9555635801436532
0.9474487280604382
0.9278521555884961
0.8974568136947981
0.857240669066748
0.8084577125879183
0.7526001691041585
0.6913429034130016
0.6264730449863135
0.5598097003204185
0.4931199802300974
0.42803820625317646
0.365994965931968
0.30816169244958397
0.2554148042350181
0.20832139084840653
0.16714624469316028
0.13187798437366244
0.10227033762357574
0.07789354312627968
0.058190412239009386
0.04253189192879162
0.03026792555360664
0.020770911274264555
0.013471075406666934
0.0078858265112416
0.0036492073834816087
0.0005533145351472482
-0.0013819457705927189
-0.0018098112376919427
-7.8266453961824e-05
-3.6533755223459113e-06
-0.00041906102837014085
-0.001608412754869274
-0.004243981823368903
-0.009269940196464098
-0.01789088005998935
-0.031521797423474315
-0.051700025624422705
-0.07996833969432954
-0.11774339543732021
-0.1661858067603475
-0.22608737322439554
-0.29778775539377145
-0.3811281665616307
-0.4754444369238657
-0.5795970262568687
-0.692031861571641
-0.8108635802111103
-0.9339718888439158