# vtk DataFile Version 4.1 
COMMENT
ASCII
DATASET STRUCTURED_POINTS 
DIMENSIONS 100 100 1 
ORIGIN 0 0 0
SPACING 0.12693303650867893 0.12693303650867893 0 
POINT_DATA 10000
SCALARS U double 1
LOOKUP_TABLE default
0.0
0.0
0.0
0.0
0.0
0.0
0.0
0.0
0.0
0.0
0.0
0.0
0.0
0.0
0.0
0.0
0.0
0.0
0.0
0.0
0.0
0.0
0.0
0.0
0.0
0.0
0.0
0.0
0.0
0.0
0.0
0.0
0.0
0.0
0.0
0.0
0.0
0.0
0.0
0.0
0.0
0.0
0.0
0.0
0.0
0.0
0.0
0.0
0.0
0.0
0.0
0.0
0.0
0.0
0.0
0.0
0.0
0.0
0.0
0.0
0.0
0.0
0.0
0.0
0.0
0.0
0.0
0.0
0.0
0.0
0.0
0.0
0.0
0.0
0.0
0.0
0.0
0.0
0.0
0.0
0.0
0.0
0.0
0.0
0.0
0.0
0.0
0.0
0.0
0.0
0.0
0.0
0.0
0.0
0.0
0.0
0.0
0.0
0.0
0.0
2.735873944541695e-12
-1.3419061077916222e-09
-1.5065078461890128e-08
-8.641400573541999e-08
-3.556684097620967e-07
-1.185283951971898e-06
-3.3952295666838364e-06
-8.657293713898272e-06
-2.0101882861452835e-05
-4.318399198116325e-05
-8.683638603545324e-05
-0.00016490741343740614
-0.000297840551267766
-0.0005145073695435332
-0.0008540613844090555
-0.0013676441390221103
-0.0021197530671069552
-0.0031890777584005253
-0.00466862910533731
-0.006665023547117527
-0.009296838647825134
-0.012692020906589139
-0.016984395210016722
-0.02230939076141971
-0.028799154487648502
-0.036577265134273944
-0.045753286698424066
-0.05641740768900927
-0.06863540394156017
-0.08244413979968293
-0.09784778883092961
-0.11481491475730903
-0.1332765098262
-0.15312504491187393
-0.17421454605039666
-0.19636167789830986
-0.21934778695629353
-0.24292183671261625
-0.2668041528601074
-0.2906908886157412
-0.31425911674126866
-0.33717245472374024
-0.359087131240507
-0.379658404054217
-0.39854724054409646
-0.41542717108475286
-0.4299912216318235
-0.44195882472823905
-0.4510825976958604
-0.45715486348899875
-0.4600137745097243
-0.4595488840045688
-0.4557059951460442
-0.4484911062273185
-0.43797326286882704
-0.4242861252779356
-0.40762805992183293
-0.38826056915413
-0.36650487819165584
-0.34273650717325155
-0.31737767216572055
-0.29088739505323924
-0.26374927771736384
-0.23645703435172408
-0.2094980965679612
-0.18333591164977417
-0.15839191685399384
-0.1350285253734106
-0.11353470224912779
-0.09411573031767212
-0.07688848412524006
-0.06188293036933233
-0.04904974042597602
-0.03827300856229966
-0.02938633896042236
-0.02219018864342672
-0.016468424513482793
-0.012002524694968432
-0.008582558331718376
-0.006014789696125546
-0.004126280444323291
-0.002767117063803658
-0.001810895519045331
-0.0011539592323431738
-0.0007137323955385703
-0.00042639765178666817
-0.00024414851076814595
-0.00013226508192031703
-6.626639272693821e-05
-2.935376823601052e-05
-1.0280549755612691e-05
-1.6903235205087038e-06
1.1112207041730723e-06
1.0294482025484193e-06
-2.1161179770974225e-07
-1.6472958107206412e-06
-2.7688422657705996e-06
-3.269482301735839e-06
-2.732827989232358e-06
-1.1922490658835363e-07
5.568473583867635e-12
-4.636158213494682e-09
-4.190643729191486e-08
-2.1166817720046657e-07
-7.92945497083723e-07
-2.4467067836299053e-06
-6.557463177933122e-06
-1.5755326163113896e-05
-3.4648089167876686e-05
-7.076930186636289e-05
-0.00013571475553005545
-0.0002464005481884624
-0.0004263372564425185
-0.0007067838528298058
-0.001127628374305799
-0.0017378444381138181
-0.0025953949981191095
-0.0037664954086862766
-0.005324202120237425
-0.007346354306308659
-0.00991295569782123
-0.013103135573354543
-0.016991865415995292
-0.0216466276030213
-0.027124233547235973
-0.03346797222610781
-0.04070523918887502
-0.04884575533803544
-0.057880438976505195
-0.06778094858542644
-0.07849987166785709
-0.08997149986393986
-0.10211310435267813
-0.11482660909690326
-0.12800055255368875
-0.14151223007900027
-0.15522991790083465
-0.16901509344912052
-0.18272458418951043
-0.19621259619844847
-0.20933259304171253
-0.22193901384915157
-0.23388883585877873
-0.24504300042192997
-0.255267732001207
-0.26443578668024964
-0.27242766986739053
-0.2791328620347824
-0.28445108644008477
-0.2882936440011953
-0.29058482838167343
-0.2912634199993458
-0.29028424290895016
-0.28761975586675964
-0.28326164131464265
-0.27722235611196683
-0.2695366164631894
-0.260262803987607
-0.24948429238853895
-0.237310691024686
-0.22387896525046197
-0.20935430764089533
-0.19393049397370776
-0.17782927981745886
-0.1612982245216721
-0.14460624490381627
-0.1280362890888833
-0.11187485009678956
-0.09639861662060328
-0.08185929946020046
-0.06846839364399623
-0.05638409838458806
-0.045702602815762196
-0.03645535670409473
-0.028612870207983514
-0.0220942996571251
-0.016780954920120206
-0.012531249304480886
-0.009194672509771299
-0.006623026358643812
-0.004678142044528494
-0.0032362371867792655
-0.0021896850596341303
-0.001447149113375569
-0.0009328647554446971
-0.0005855217636324565
-0.0003569095780761736
-0.00021034280997103233
-0.0001188850954783259
-6.346284531948803e-05
-3.102264243692801e-05
-1.2889825455990458e-05
-3.4330389802916414e-06
9.367666726259718e-07
2.4684506476508664e-06
2.542299299967968e-06
1.9821247642596445e-06
1.2618164312531472e-06
6.235945582199637e-07
2.4353800813666556e-08
5.831645776621538e-12
-1.4968731598505285e-08
-1.1900252442480868e-07
-5.555386071119628e-07
-1.9652551149832664e-06
-5.796493381903064e-06
-1.4969225749965117e-05
-3.485562064630428e-05
-7.46157700885174e-05
-0.00014888616472066865
-0.00027976501262499585
-0.0004989798523915288
-0.0008500684810953048
-0.0013903635189214526
-0.002192551696132562
-0.0033455856146614948
-0.004954758678789209
-0.007140809482353887
-0.010037993376224956
-0.013791137540727933
-0.018551772594276823
-0.024473500509651594
-0.031706809317464876
-0.04039357624779968
-0.05066151173491713
-0.06261878855785304
-0.07634907653911303
-0.09190716796017853
-0.10931533682979003
-0.1285605307940966
-0.14959245159572998
-0.17232254146308307
-0.1966238605469944
-0.22233181548127892
-0.24924568147563253
-0.27713084957170186
-0.3057217258839347
-0.3347252096257809
-0.36382468020046743
-0.3926844293310498
-0.4209544809149573
-0.44827574793406516
-0.47428548138754834
-0.49862297002294886
-0.5209354509066014
-0.5408841889583589
-0.5581506778841578
-0.5724429049092492
-0.5835016068184602
-0.5911064246184974
-0.5950818384618033
-0.5953027336292156
-0.5916994136068418
-0.5842618403626855
-0.5730428497227771
-0.5581600687647368
-0.5397962623847168
-0.5181978689134817
-0.4936715595388457
-0.4665787768777223
-0.4373283662585803
-0.40636758505948545
-0.3741719206194158
-0.34123421691826
-0.30805356321293076
-0.27512422328171543
-0.24292462201667864
-0.21190615409887836
-0.1824814718523863
-0.15501206874742782
-0.12979544669861173
-0.10705285329431019
-0.08691927397416838
-0.0694377585113843
-0.05455998397060655
-0.042154111901332406
-0.03201964313294996
-0.023907496254287817
-0.017542417355883855
-0.012644449793596293
-0.008946669594017511
-0.0062075259859670825
-0.004217496146043529
-0.0028009123477242704
-0.0018144448604503558
-0.0011437719944349617
-0.0006996078932178989
-0.0004137569461096761
-0.00023545004751786335
-0.00012799806578509391
-6.575149791527467e-05
-3.13935612023725e-05
-1.3629894188419918e-05
-5.3294054668277565e-06
-2.123165308963841e-06
-1.4108845804858266e-06
-1.6825321998471655e-06
-2.041365542818588e-06
-1.802585226654488e-06
-7.763645673324427e-08
-1.8073300362352584e-11
-4.364591564133781e-08
-3.1102722464456654e-07
-1.3474488466600229e-06
-4.496510429801837e-06
-1.2630555440559862e-05
-3.12590822425403e-05
-7.006397920394525e-05
-0.00014485498070734677
-0.00027986573939241504
-0.0005102313966513048
-0.0008844166702497875
-0.001466313539376124
-0.002336710867577659
-0.0035938606150789382
-0.005352925899780485
-0.007744187950323076
-0.010909999958015304
-0.015000591404973763
-0.020168932031985814
-0.026564947884646216
-0.03432943440540973
-0.043588029560241354
-0.05444559435260621
-0.06698130350711094
-0.08124468301641365
-0.09725275240246861
-0.11498834678234914
-0.1343996150191016
-0.15540062157788018
-0.17787292537365618
-0.20166797100963738
-0.22661010664050182
-0.25250003705042345
-0.27911852817682753
-0.30623019740998236
-0.33358724953142427
-0.36093304821067845
-0.3880054449818569
-0.41453981944913093
-0.4402718145043637
-0.46493977744524095
-0.4882869413384265
-0.5100634003827508
-0.530027948210024
-0.5479498589375797
-0.5636106972757835
-0.5768062459116388
-0.5873486353585572
-0.5950687528316829
-0.5998189914957799
-0.6014763783156885
-0.5999460861467609
-0.5951652920977318
-0.587107288660369
-0.5757856872924375
-0.5612584796387938
-0.5436316472870737
-0.5230619499972836
-0.4997584924006138
-0.4739826892295601
-0.4460463331374529
-0.41630761724991
-0.3851651551824446
-0.3530502287242448
-0.3204176166776055
-0.28773536289592466
-0.25547371016779136
-0.22409320652148687
-0.1940317989210735
-0.16569072209382948
-0.13941929432548167
-0.11549936355068331
-0.09413095603926616
-0.07542136427850141
-0.059380115219714445
-0.04592173404496286
-0.0348769607636609
-0.02601138874210345
-0.01904889483078957
-0.013696256336338211
-0.009665327126664366
-0.006690048996065821
-0.004537046542382531
-0.0030100683852962483
-0.0019496299549333726
-0.0012296555323706856
-0.0007527639077414709
-0.00044534223330341873
-0.0002529981822676595
-0.0001365744689163448
-6.871387288276228e-05
-3.0926144486575606e-05
-1.1137016954228229e-05
-1.7207299852878327e-06
1.995343507534814e-06
2.799646856223754e-06
2.3099409785397682e-06
1.3749478010338284e-06
5.7660060092138346e-08
-1.419023080692201e-10
-1.1734622575100638e-07
-7.63612179527239e-07
-3.1000774110018047e-06
-9.824156981251016e-06
-2.642228666967469e-05
-6.296697662264993e-05
-0.00013647260508775546
-0.00027373273392192025
-0.0005144586311456753
-0.0009144430625186321
-0.0015484045475434734
-0.0025121404571922076
-0.00392364044931837
-0.005922883688809169
-0.008670154461517766
-0.012342845258031745
-0.017130855282861717
-0.023230817281659287
-0.03083948175202233
-0.04014664568172319
-0.051328029821553656
-0.06453848680826496
-0.07990586936044619
-0.09752581317592961
-0.1174576038839949
-0.139721211603902
-0.16429549866682222
-0.19111754173559434
-0.22008296213282105
-0.2510471284674918
-0.28382708248671135
-0.3182040399670163
-0.35392633013943176
-0.3907126561315711
-0.4282555819168701
-0.4662251754599505
-0.5042727609240523
-0.5420347533944028
-0.5791365666043338
-0.6151965971665098
-0.6498302977279835
-0.6826543564555664
-0.7132910016238492
-0.7413724481658778
-0.7665454981655321
-0.7884762996487389
-0.8068552577958188
-0.8214020798813775
-0.8318709198115645
-0.8380555699931975
-0.8397946273489832
-0.8369765365095365
-0.8295443864976543
-0.8175003075380539
-0.8009092821051432
-0.7799021496319245
-0.7546775494296112
-0.7255025158092973
-0.6927114215193451
-0.6567029733841973
-0.6179350139001567
-0.5769169901278318
-0.5342001233246478
-0.49036553730392546
-0.4460108417625167
-0.40173585455294347
-0.3581282102557357
-0.3157494891750999
-0.27512221771538925
-0.2367177283855496
-0.20094458998233738
-0.16813730895606746
-0.13854537292159375
-0.11232340920623822
-0.0895240266864968
-0.07009542907345523
-0.05388578132990821
-0.04065542264820433
-0.030096506240903334
-0.021857958377111533
-0.015572364759198216
-0.010880973921405386
-0.007453598435698439
-0.005001560871656375
-0.003283474204799991
-0.00210502818796143
-0.0013147165530481284
-0.0007975164959332867
-0.0004681068974353534
-0.00026458665883788456
-0.0001430951336313693
-7.338072529038723e-05
-3.521474674189089e-05
-1.55295667562994e-05
-6.185887512242704e-06
-2.289881220093631e-06
-9.75674833113925e-07
-5.622053967854418e-07
-2.2894298354990776e-08
-5.86712502560358e-10
-2.939267350573919e-07
-1.7683625485722023e-06
-6.7706216217419395e-06
-2.0454894205559155e-05
-5.280857898775168e-05
-0.00012138657706629223
-0.00025467636257917465
-0.0004958791772853596
-0.0009067619158858392
-0.0015711373025490906
-0.0025974891711234515
-0.0041202871791721175
-0.006299630447288092
-0.00931900947685563
-0.013381158174580325
-0.018702156409851976
-0.02550411244560804
-0.03400688301023758
-0.044419363708830706
-0.05693089968991993
-0.07170332990769308
-0.08886409814189447
-0.10850075413176506
-0.13065704393649832
-0.15533066415790667
-0.1824726415945634
-0.2119882064582448
-0.24373895806145812
-0.27754607815223176
-0.3131943274348847
-0.35043656201404777
-0.38899852421681713
-0.42858369181687145
-0.4688780066336554
-0.5095543439047234
-0.5502766245936176
-0.5907035115928821
-0.6304916660947768
-0.6692985713941267
-0.7067849577577193
-0.7426168838220547
-0.7764675475737068
-0.8080189137226451
-0.8369632545679804
-0.8630047085170486
-0.8858609642774089
-0.9052651791435584
-0.9209682361686234
-0.9327414364310622
-0.9403797078478788
-0.943705389581239
-0.9425726194663719
-0.9368723095905344
-0.9265376410818593
-0.9115499429296433
-0.8919447419670061
-0.8678176843600451
-0.8393299378200657
-0.8067125964648345
-0.7702695395567452
-0.7303781593137207
-0.6874873942424671
-0.6421126063942421
-0.5948270399564877
-0.5462498926262968
-0.49703138843003225
-0.44783559469006373
-0.39932198542299957
-0.3521268305726103
-0.30684534216007403
-0.2640151754028903
-0.22410150071644006
-0.18748362553542336
-0.15444322266579152
-0.12515465867577413
-0.09967856525729644
-0.07796034145788372
-0.059835347359485494
-0.0450419102391968
-0.033241951647213074
-0.024047411471857728
-0.017049241701251314
-0.011845084098027411
-0.00806208650062922
-0.005372531512481465
-0.0035016143008662643
-0.0022282628089993514
-0.001380909294116345
-0.000830428495417265
-0.0004821638367070464
-0.00026834613729638973
-0.0001415623551499411
-6.944818309404137e-05
-3.0515064792280866e-05
-1.0934869456336193e-05
-2.113106465192721e-06
1.075930952154847e-06
1.4503051238127717e-06
6.177926306571177e-08
-1.9183856647520535e-09
-6.913717052079193e-07
-3.882066069507498e-06
-1.409315168968053e-05
-4.073678154283084e-05
-0.00010122453682538242
-0.000224904892204901
-0.0004575932902507657
-0.0008662829033103191
-0.0015434905567377041
-0.0026106314003415407
-0.0042198455379036486
-0.006553819743320171
-0.009823339986277274
-0.014262545273702257
-0.020122093846714213
-0.027660664044221697
-0.037135366714782556
-0.0487917278767861
-0.06285390584585854
-0.07951574392800347
-0.09893314390295777
-0.12121809723258897
-0.14643455128977304
-0.17459613565597265
-0.20566564306457769
-0.23955605995830104
-0.2761328766964979
-0.31521737646972925
-0.35659060084605043
-0.3999977123814328
-0.44515251378494924
-0.4917419317546222
-0.5394303256242201
-0.5878635314489101
-0.6366725975654259
-0.6854772058035913
-0.7338888023999529
-0.7815134842155237
-0.8279546997129004
-0.8728158313579747
-0.9157027279465457
-0.9562262531274967
-0.994004911332102
-1.0286676054875183
-1.0598565731391165
-1.0872305395297635
-1.110468118116869
-1.1292714809989617
-1.1433703135214743
-1.1525260583642338
-1.1565364437711059
-1.1552402770169483
-1.1485224661608993
-1.1363192088270353
-1.1186232543393
-1.0954891033703298
-1.0670379562928682
-1.033462157786294
-0.9950288131505111
-0.9520821766989165
-0.9050443447893816
-0.8544137418244383
-0.8007608894127092
-0.7447210229250418
-0.6869832887733208
-0.6282765282933124
-0.5693520109092032
-0.5109638644878257
-0.4538482755986731
-0.39870269738290826
-0.34616623803856517
-0.2968021123602604
-0.25108262417186433
-0.20937678956721395
-0.1719405989278577
-0.1389101474859907
-0.11029836434407815
-0.08599658084847647
-0.06578235223045416
-0.049334506085016085
-0.03625529783548301
-0.026098071369995642
-0.018397443411497873
-0.012698268962472658
-0.008579813882284038
-0.00567262453665562
-0.003667181023980035
-0.0023150253195966444
-0.0014242061037096827
-0.0008513467963175627
-0.000492466652741271
-0.0002741065455093128
-0.0001456253683180985
-7.296396756853036e-05
-3.381898869119127e-05
-1.4016147170444694e-05
-4.852428041551662e-06
-1.2031583631872316e-06
-5.006859952815673e-08
-5.447045819617934e-09
-1.5364415416224947e-06
-8.110522994083433e-06
-2.8039744235014145e-05
-7.777808199048359e-05
-0.00018642585025297042
-0.00040106173568669226
-0.0007924167000417932
-0.0014602198214215168
-0.002537451331394493
-0.00419276257872071
-0.006630468555525142
-0.010087763481884391
-0.014829112907989998
-0.021138087441690573
-0.029307176075932185
-0.03962631434946128
-0.05237096329771077
-0.06779057564586748
-0.08609819741078287
-0.10746179820176725
-0.1319977296040533
-0.15976650589786076
-0.1907709090248559
-0.22495625787276366
-0.26221256105445667
-0.30237819593382514
-0.3452447225349324
-0.39056244300968807
-0.43804634715723095
-0.4873821330551622
-0.5382320506963636
-0.5902403784742914
-0.643038401993532
-0.696248818356769
-0.7494895347760991
-0.8023768673894235
-0.8545281748282165
-0.9055639823188014
-0.9551096671832497
-1.0027967869186585
-1.0482641378846442
-1.0911586371432669
-1.1311361230468273
-1.1678621723445732
-1.2010130331687612
-1.230276774249951
-1.2553547507834424
-1.2759634859002047
-1.291837062756208
-1.3027301146132064
-1.3084214874323574
-1.3087186297058961
-1.3034627356506436
-1.292534628653408
-1.2758613204288278
-1.2534231167293564
-1.2252610625824514
-1.1914844302513419
-1.152277854653828
-1.1079076196004034
-1.0587265030529618
-1.005176514086719
-0.9477888168739915
-0.8871801612150627
-0.8240452507528182
-0.759144701034505
-0.6932885776840357
-0.6273159405226533
-0.5620712957515588
-0.49837928246362867
-0.43701918223180386
-0.37870085309304097
-0.32404343070727637
-0.2735576868111562
-0.22763245541821747
-0.18652522871505384
-0.150357021458763
-0.11911188719354905
-0.09264184508262281
-0.07067813369876791
-0.05284937243553106
-0.03870629951742463
-0.027751462439155578
-0.01947098558426315
-0.013364811208241656
-0.00897192541442107
-0.005888052564178047
-0.0037748256774595723
-0.002361032766829303
-0.0014377419135073654
-0.000849661590409188
-0.00048499830602396387
-0.0002655360071119723
-0.0001379634885346345
-6.685486149813663e-05
-2.928979838004398e-05
-1.0896010683356823e-05
-3.00043049223485e-06
-1.2913253728284252e-07
-1.3964118209172008e-08
-3.2417252764679904e-06
-1.6181409634892894e-05
-5.346976252260406e-05
-0.00014269864592226375
-0.00033057922959080617
-0.0006897006313253774
-0.0013250704073151625
-0.002379485468791293
-0.004036791662836993
-0.006522262675681446
-0.010099636273182035
-0.015064733789355349
-0.021735990099051177
-0.030442571312705054
-0.041511006188034355
-0.05525137713108428
-0.07194410404308973
-0.09182822635290866
-0.1150918768994273
-0.14186538407921404
-0.17221717348072474
-0.2061523986714612
-0.24361403519562974
-0.28448603420416574
-0.3285980550211268
-0.375731274387034
-0.4256247941491605
-0.4779822263393975
-0.5324781120871028
-0.5887639170677212
-0.6464734317711213
-0.7052274829480412
-0.7646379288754444
-0.8243109635320394
-0.8838497931326886
-0.9428567737414186
-1.0009351126623338
-1.0576902411767104
-1.1127309642134853
-1.1656704858407745
-1.2161273999270077
-1.2637267245115564
-1.3081010475982537
-1.34889184219205
-1.3857510001181996
-1.4183426279245301
-1.4463451441598334
-1.4694537154786818
-1.4873830689819283
-1.499870719237736
-1.5066806493717038
-1.5076074847764749
-1.5024811931081756
-1.4911723324881812
-1.4735978479562317
-1.4497273807983322
-1.41959000325228
-1.3832812200411428
-1.3409699876904082
-1.2929053948154694
-1.2394225274182062
-1.1809469234192225
-1.1179969166875476
-1.0511831055299958
-0.9812041823609299
-0.908838460902955
-0.8349306611393004
-0.7603738712928931
-0.6860870825772634
-0.6129892293571936
-0.5419711684559362
-0.47386737893511616
-0.40942925524357526
-0.3493016609455868
-0.2940039620090088
-0.24391621757130155
-0.19927076691693843
-0.16014926586547265
-0.12648531524349016
-0.09807304329748878
-0.07458209034133083
-0.05557914482471043
-0.04055539954554884
-0.028958183687063828
-0.020223943492859775
-0.013809121466114262
-0.009215622359745506
-0.006008482281287597
-0.00382481131796543
-0.0023746188457281644
-0.0014353208235569257
-0.000842308109156507
-0.0004779027495727588
-0.0002605229840324074
-0.00013518292186638685
-6.580491030322021e-05
-2.9338661536890788e-05
-1.1227133077700365e-05
-4.799380453634202e-07
-3.3004605730623614e-08
-6.5201313801275254e-06
-3.092180931389559e-05
-9.796462617113218e-05
-0.00025210782634322535
-0.0005654660402206709
-0.0011457412363951407
-0.0021429750522213276
-0.00375392501450319
-0.006223060741422395
-0.009839553665490709
-0.014930125264116897
-0.021848134025910203
-0.030959732389125385
-0.0426282437484799
-0.05719805922736592
-0.07497933032293705
-0.09623456123594933
-0.12116792725718335
-0.1499178146861838
-0.18255274321629808
-0.2190705340914059
-0.25940035388378024
-0.3034071075444481
-0.3508975759342313
-0.4016276833543166
-0.4553103248176438
-0.5116232637285216
-0.5702167115045121
-0.6307203070901967
-0.6927493152928283
-0.755909951117747
-0.8198038089137846
-0.8840314290793364
-0.9481950723074769
-1.0119007941480556
-1.0747599239723913
-1.1363900553188233
-1.196415651937854
-1.25446836808058
-1.310187174598926
-1.3632183756365108
-1.4132155949854837
-1.4598398070604868
-1.5027594850633335
-1.5416509382029366
-1.5761989105306167
-1.6060975156445387
-1.6310515836732122
-1.6507784988951226
-1.6650106072479687
-1.6734982717627909
-1.676013649275631
-1.672355251923728
-1.6623533398397632
-1.6458761646627202
-1.6228370442749183
-1.5932021948306652
-1.5569991743556348
-1.5143257016995901
-1.4653585060127883
-1.410361738637864
-1.34969434877647
-1.283815698988217
-1.213288594978647
-1.1387788509714825
-1.0610505371335333
-0.9809561904494385
-0.899421540813264
-0.8174247187424837
-0.7359704489196802
-0.6560603335993939
-0.5786608909170129
-0.504671412170775
-0.4348938296632532
-0.37000659191527757
-0.3105440690783409
-0.2568823970473017
-0.20923210443913462
-0.167637512735644
-0.1319828036591976
-0.10200470432456234
-0.07731173156757871
-0.05740964091252134
-0.04173205126534007
-0.029674283614946756
-0.020627570281724135
-0.014010332598266725
-0.009293451075962777
-0.0060173840817040495
-0.0038003889213162074
-0.0023385615843358985
-0.0013995409307870777
-0.0008122753927971167
-0.000455199954623299
-0.00024467837041365766
-0.00012487155083142903
-5.947199662763545e-05
-2.4788015038897462e-05
-1.0598051200438585e-06
-7.286362707680256e-08
-1.2544780657923395e-05
-5.674848665799856e-05
-0.00017283395376357423
-0.00042974657110879513
-0.000934711289056494
-0.0018416796462451144
-0.00335719216135598
-0.005742344795514818
-0.009310001387340306
-0.014417011014565771
-0.021451849713205275
-0.03081868993006436
-0.042919314999091296
-0.05813448846391761
-0.07680635365528914
-0.09922321109600295
-0.1256076593945831
-0.1561086590257476
-0.19079765397087226
-0.2296685162754667
-0.27264079715638695
-0.31956558996543355
-0.37023323298022104
-0.4243820894141356
-0.48170771702414256
-0.5418718568238056
-0.6045108076787592
-0.6692428927543053
-0.7356748515784375
-0.803407099567155
-0.8720378813576628
-0.9411664048204361
-1.010395081203924
-1.0793310169548782
-1.1475869083923183
-1.2147814856168553
-1.2805396404226308
-1.3444923575467682
-1.406276551666697
-1.4655348958275252
-1.5219157115961541
-1.57507297791943
-1.6246665048313327
-1.6703623100325464
-1.7118332310613749
-1.7487598033255165
-1.7808314346559448
-1.8077479101890843
-1.8292212670675518
-1.844978086241514
-1.8547622577875342
-1.8583382854062414
-1.8554952032739311
-1.846051181649649
-1.8298588932574933
-1.8068116964533802
-1.77685065905681
-1.7399723939686114
-1.6962376004669217
-1.6457801011686213
-1.5888160346598486
-1.5256527124518482
-1.45669648634388
-1.382458815137957
-1.3035595917399
-1.2207267235180665
-1.1347909854839704
-1.046675322248163
-0.9573780869804456
-0.8679501795702776
-0.7794666544262248
-0.692994041303248
-0.6095552504525433
-0.5300943852338416
-0.4554439451205983
-0.38629671324456405
-0.32318412215346076
-0.2664622116666809
-0.21630561994780148
-0.17270954759379856
-0.1354993692072074
-0.10434746482493336
-0.07879672728293803
-0.058289885916461774
-0.04220319540338303
-0.0298822749276231
-0.020677211376765293
-0.01397377408354038
-0.009217939341574194
-0.005931889116386095
-0.0037210012022042584
-0.002272721482680996
-0.0013492467702603313
-0.0007764335898447359
-0.00043126526353567734
-0.0002296893484490905
-0.00011578929054534249
-5.160855209105213e-05
-2.1984345277788184e-06
-1.5160977172060175e-07
-2.3158395462484036e-05
-0.00010026065898959459
-0.0002942273636217831
-0.0007081046965521615
-0.0014956219975056065
-0.002868991405645308
-0.005102311554581722
-0.008529389382295865
-0.013535558421546696
-0.020543914968424615
-0.029997151968499895
-0.04233671458731738
-0.05798125855832734
-0.0773063529256026
-0.10062707715180028
-0.12818469858955672
-0.1601380735366597
-0.19655988129893245
-0.23743734427814916
-0.2826767504260751
-0.3321108933762032
-0.3855084739178062
-0.44258454249826085
-0.5030111762531307
-0.5664277440613431
-0.6324502907380305
-0.7006797440581414
-0.7707088002511835
-0.842127466178537
-0.914527326653341
-0.9875046646642734
-1.0606625947757016
-1.1336123812652112
-1.2059741085258644
-1.277376857390061
-1.347458521955175
-1.415865380793655
-1.4822515166471575
-1.546278161429708
-1.6076130294243856
-1.6659296911998809
-1.7209070338510657
-1.7722288493003668
-1.819583591094699
-1.8626643408935264
-1.9011690282129385
-1.934800950596956
-1.9632696459432877
-1.986292173990834
-2.003594869756463
-2.014915637676829
-2.0200068608371473
-2.018639004045536
-2.010604991171582
-1.9957254339132684
-1.9738547779333546
-1.9448884091976901
-1.908770723752711
-1.865504103258795
-1.815158652052946
-1.757882436719712
-1.6939118265880737
-1.623581368475002
-1.5473324529571317
-1.4657198617060307
-1.3794151533536516
-1.2892057836078095
-1.1959889027516735
-1.1007589671634785
-1.004588666477658
-0.9086032058787826
-0.8139486586274578
-0.7217558381210822
-0.6331018127586087
-0.5489716632142971
-0.4702232416887369
-0.3975574796365886
-0.3314962413332216
-0.2723689662083899
-0.2203085670162441
-0.17525641914697443
-0.13697586419524854
-0.10507341023903304
-0.07902660023361958
-0.05821718843306245
-0.04196775516115295
-0.02957929643951701
-0.020366870768061682
-0.013690325561267223
-0.008977617642252094
-0.005739254567823245
-0.003573692036222638
-0.0021647940061456043
-0.0012733836592606724
-0.0007252996749805514
-0.00039818148134248627
-0.00020835043215439668
-9.66292530100726e-05
-4.102753062642575e-06
-2.993028395971118e-07
-4.112953550819639e-05
-0.00017090188373347274
-0.0004842420270384386
-0.0011297785617928892
-0.002320259560008561
-0.004338002529797648
-0.0075338829876282765
-0.012319149733387467
-0.01915042528515801
-0.02850923815827931
-0.040878158362031236
-0.056715963325013975
-0.07643422981317062
-0.10037738475976876
-0.12880766015023634
-0.16189570897543507
-0.1997169673293722
-0.24225328146068892
-0.28939891155088504
-0.3409697939222081
-0.3967148786195983
-0.45632842848431354
-0.5194623279804369
-0.5857376632761954
-0.6547550628050023
-0.7261035018277817
-0.7993674572487252
-0.8741324410401285
-0.9499890403867033
-1.026535653520202
-1.103380138689547
-1.1801405975720005
-1.2564455013851572
-1.3319333448015391
-1.406251984942525
-1.479057794219966
-1.5500147292244644
-1.6187933947165674
-1.6850701626847078
-1.7485263914259734
-1.8088477783637578
-1.86572387236085
-1.9188477661174317
-1.9679159864319535
-2.012628599344594
-2.0526895483141825
-2.0878072465695174
-2.1176954496920546
-2.1420744414386195
-2.1606725748707505
-2.1732282219458416
-2.179492197487061
-2.179230737081002
-2.172229121521844
-2.1582960506826803
-2.137268873934251
-2.1090197781963083
-2.0734630131883747
-2.0305631905938863
-1.9803446238058822
-1.9229015728197183
-1.8584091222047903
-1.7871342505431618
-1.7094464548404902
-1.6258270884297912
-1.536876379864334
-1.4433169561756354
-1.345992636738265
-1.2458613367329032
-1.1439811599786363
-1.0414891922218041
-0.9395731217300096
-0.8394365678084631
-0.7422597976862928
-0.6491582282156787
-0.5611415972648034
-0.4790768314763686
-0.40365737977014676
-0.3353811678291652
-0.2745384914418366
-0.22121028959215405
-0.17527648741659904
-0.13643355753199693
-0.10422008766392737
-0.0780488523532391
-0.05724354968953564
-0.04107794211583103
-0.028814719415611312
-0.019741167851039423
-0.013198879584071798
-0.008605372683496192
-0.005466550446461815
-0.003380186491660408
-0.0020317755243669747
-0.0011848577857038146
-0.0006680857380430119
-0.0003604460790995933
-0.00017226305068339197
-7.284141429534773e-06
-5.63519691913432e-07
-7.044329244416825e-05
-0.00028162935605211074
-0.0007718660682107388
-0.00174826868811325
-0.003495291160510145
-0.006375641771604811
-0.010822698461431017
-0.017324608998239982
-0.026401549709917253
-0.03857859141450161
-0.05435712730422175
-0.0741878181911557
-0.09844757413448826
-0.1274223564712298
-0.16129671655161873
-0.20015014221110014
-0.2439595782988309
-0.2926069923648665
-0.3458905912459737
-0.4035382399840317
-0.4652217470105876
-0.5305709031970036
-0.599186441884715
-0.6706513754066764
-0.7445404264361729
-0.8204274887131559
-0.8978912122742716
-0.9765189135569483
-1.0559090672074305
-1.1356726539948279
-1.2154336288314131
-1.2948287448081577
-1.3735069320511601
-1.4511283907347996
-1.5273635203414961
-1.6018917750034116
-1.674400508799179
-1.7445838554369988
-1.8121416733532854
-1.8767785790102356
-1.9382030870357188
-1.9961268747624648
-2.050264189746621
-2.1003314212046713
-2.1460468594324418
-2.1871306708031866
-2.2233051197371148
-2.2542950731396116
-2.279828827433229
-2.2996393037895957
-2.3134656638713293
-2.3210554066148767
-2.3221670163763446
-2.316573243722979
-2.3040651111720822
-2.284456745160411
-2.257591139148243
-2.2233469463352424
-2.1816463779995163
-2.132464238050214
-2.075838048954114
-2.0118791128451234
-1.9407842013323726
-1.8628473802798933
-1.7784712608695346
-1.6881767439828743
-1.5926101200037812
-1.4925462390004012
-1.3888864223637871
-1.2826498930373718
-1.1749577961063988
-1.0670093830867111
-0.9600506265174995
-0.855336357049339
-0.7540878673523596
-0.657448665108066
-0.5664415329064563
-0.48193015006300427
-0.40458820643397436
-0.33487824319097076
-0.2730415299704101
-0.21909931646954361
-0.17286494443066475
-0.1339656602407898
-0.10187251631089526
-0.07593640680381351
-0.05542796192884
-0.03957870330207204
-0.02762061853230315
-0.018821295355063845
-0.01251210687246674
-0.008107708247829484