# vtk DataFile Version 4.1 
COMMENT
ASCII
DATASET STRUCTURED_POINTS 
DIMENSIONS 100 100 1 
ORIGIN 0 0 0
SPACING 0.12693303650867893 0.12693303650867893 0 
POINT_DATA 10000
SCALARS U double 1
LOOKUP_TABLE default
0.0
0.0
0.0
0.0
0.0
0.0
0.0
0.0
0.0
0.0
0.0
0.0
0.0
0.0
0.0
0.0
0.0
0.0
0.0
0.0
0.0
0.0
0.0
0.0
0.0
0.0
0.0
0.0
0.0
0.0
0.0
0.0
0.0
0.0
0.0
0.0
0.0
0.0
0.0
0.0
0.0
0.0
0.0
0.0
0.0
0.0
0.0
0.0
0.0
0.0
0.0
0.0
0.0
0.0
0.0
0.0
0.0
0.0
0.0
0.0
0.0
0.0
0.0
0.0
0.0
0.0
0.0
0.0
0.0
0.0
0.0
0.0
0.0
0.0
0.0
0.0
0.0
0.0
0.0
0.0
0.0
0.0
0.0
0.0
0.0
0.0
0.0
0.0
0.0
0.0
0.0
0.0
0.0
0.0
0.0
0.0
0.0
0.0
0.0
0.0
4.0243251115334036e-12
-1.973872538126208e-09
-2.19643411101924e-08
-1.2507094286055122e-07
-5.111587518382611e-07
-1.6914001200850961e-06
-4.809824804271147e-06
-1.2172378575688725e-05
-2.804433812982267e-05
-5.976103888911858e-05
-0.00011916476083365807
-0.00022433353879514393
-0.000401510452408016
-0.0006870825130293691
-0.0011294062889488198
-0.0017902425875322325
-0.0027455526755910506
-0.00408542811065489
-0.005912975452079821
-0.008342051754003467
-0.011493838992261847
-0.015492345247584331
-0.02045901655931015
-0.0265067256510362
-0.03373346406677553
-0.0422160974484689
-0.05200454784400417
-0.06311674334186587
-0.07553462791215669
-0.08920145888891755
-0.10402054283689696
-0.11985547952712046
-0.13653190474381144
-0.15384065090857543
-0.1715421838844854
-0.18937212716143761
-0.2070476518447651
-0.2242744921576608
-0.2407543402468477
-0.2561923790093362
-0.2703047251269507
-0.28282557409156756
-0.2935138624293554
-0.3021592875712122
-0.30858755125417875
-0.31266471683409197
-0.31430059381004016
-0.31345108407937644
-0.31011944429922633
-0.3043564379547582
-0.29625937030614563
-0.2859700203334843
-0.2736715069198234
-0.25958415203149326
-0.2439604308667931
-0.22707912594623778
-0.2092388257924514
-0.19075092529145096
-0.17193229038017274
-0.1530977425900574
-0.13455250124166307
-0.1165847001592754
-0.0994580845872777
-0.08340500857688533
-0.06861990715859285
-0.055253514649255396
-0.04340822608167781
-0.03313511688962318
-0.02443319300432438
-0.01725138251748591
-0.011493563052165194
-0.007026549811437871
-0.0036905067481528006
-0.0013107949140589875
0.0002900345997445527
0.0012814565818287747
0.001816526689959372
0.002026447211041398
0.0020182457417912353
0.0018751450945961874
0.0016588570275895397
0.0014129270521043042
0.0011663695911863226
0.0009370747027420584
0.000734731523429755
0.0005632158233560044
0.0004224953470014632
0.00031013043613929687
0.00022242819652596766
0.00015528499288462573
0.00010474522996178409
6.731461086390907e-05
4.008185258179612e-05
2.071227595069925e-05
7.375134427769755e-06
-1.3412478058081883e-06
-6.472189788495031e-06
-8.585766919574716e-06
-7.336961537054857e-06
-3.200891374591866e-07
8.257105952864086e-12
-6.874016009151213e-09
-6.178302640561576e-08
-3.10343007590905e-07
-1.1559998131460061e-06
-3.5458336229404825e-06
-9.444395569269489e-06
-2.2544481621476834e-05
-4.924187168644036e-05
-9.986341936373206e-05
-0.0001900880524027329
-0.0003424456081633433
-0.00058772888522346
-0.0009661202394669389
-0.0015278240998369626
-0.002333015797877132
-0.003450965088948512
-0.004958264707209924
-0.006936181195860321
-0.009467235648382848
-0.012631204061115871
-0.01650079045022446
-0.0211372634731907
-0.026586355619823265
-0.032874703677388636
-0.04000706416768431
-0.0479644743466975
-0.05670345603127796
-0.06615628401923405
-0.07623227041927932
-0.0868199564897712
-0.09779005836752794
-0.1089989841277612
-0.12029272691923636
-0.1315109409686325
-0.14249102152217027
-0.1530720331919383
-0.1630983604294321
-0.1724229858455925
-0.18091033410631846
-0.1884386489452668
-0.1949018968103369
-0.2002112117079488
-0.2042959113360572
-0.2071041244252149
-0.20860307349879856
-0.20877905646169564
-0.20763716522946774
-0.2052007709838307
-0.20151079487038562
-0.19662477171414977
-0.1906157047287811
-0.18357070375067225
-0.1755894009452302
-0.16678214862001753
-0.1572680250201435
-0.14717270478197067
-0.13662628656993214
-0.1257612024245436
-0.11471034847501924
-0.103605559896093
-0.0925764918659947
-0.08174985955989132
-0.07124884684608057
-0.061192348772353335
-0.05169361873269949
-0.042857905367793304
-0.03477883020463403
-0.027533578876793658
-0.021177402736127563
-0.015738341729926896
-0.011213338584880229
-0.007566889320347893
-0.0047330088942822805
-0.0026206386234613414
-0.0011218516711281638
-0.00012155618722873187
0.0004929348174241277
0.000823993346604564
0.0009584550249017582
0.0009654020302029063
0.0008965765907697797
0.00078859192780444
0.0006659744661384468
0.0005442293916379004
0.00043244183352674436
0.0003352550052607672
0.0002542941079778629
0.00018919516037355568
0.00013838148509642944
9.96679675311739e-05
7.071769431528932e-05
4.935216851248193e-05
3.372201935295446e-05
2.2362896538419828e-05
1.4175078085199726e-05
8.367960019200815e-06
4.398332773043669e-06
1.8699977369731533e-06
7.390308793831358e-08
8.731013314318846e-12
-2.2406184844103872e-08
-1.7727174689245592e-07
-8.23294584342094e-07
-2.8964066131915778e-06
-8.49269558471357e-06
-2.179511088553737e-05
-5.041404040417237e-05
-0.00010716830266420235
-0.0002122672975443381
-0.00039577493731609523
-0.000700154128406243
-0.0011826217820601211
-0.0019170024844456558
-0.0029947640965538196
-0.004524954813289336
-0.00663283604255637
-0.009457110248455865
-0.013145764665608389
-0.017850675577180605
-0.0237212291875154
-0.03089730212788258
-0.039501999420291346
-0.04963456697660151
-0.06136388050380726
-0.07472286769875416
-0.08970415298385226
-0.10625713210485689
-0.12428659608084235
-0.1436529377984788
-0.16417389603375915
-0.18562772514229572
-0.20775762655355903
-0.23027724136878763
-0.25287698129602737
-0.2752309663815765
-0.2970043404198055
-0.31786074614917276
-0.337469759936918
-0.35551410733176597
-0.37169650460520504
-0.38574599552186417
-0.39742367574222376
-0.4065277184649127
-0.41289763345834957
-0.41641770706270564
-0.4170195828208183
-0.41468395105233713
-0.4094413210148822
-0.40137185159255434
-0.390604216300475
-0.37731347684286254
-0.3617179382758369
-0.34407496077753835
-0.3246757121304414
-0.3038388665075418
-0.28190329493134647
-0.25921985605149866
-0.23614248481489458
-0.21301888711417968
-0.19018126714025826
-0.1679376164095634
-0.14656414549413757
-0.1262994052666965
-0.10734049801226216
-0.0898415195614724
-0.0739140393250153
-0.05962909382648448
-0.04701994483183815
-0.0360848322769507
-0.026789182126616587
-0.019067172096733535
-0.012823082334980413
-0.007933270859030178
-0.0042497297556354004
-0.001605902326885784
0.00017517547785042643
0.0012711071014236885
0.0018500691119972936
0.0020620322974591442
0.002032634430387824
0.0018604466508321648
0.001617578797584123
0.0013528739891161485
0.0010965585303328977
0.000865206347383282
0.0006661669528972984
0.0005010243895204377
0.00036803240332796555
0.0002637049926095209
0.00018381561956220646
0.00012402157396861727
8.025197787294968e-05
4.893194865031107e-05
2.7082969304836827e-05
1.2336994916314472e-05
2.9185763403813813e-06
-2.3171473822542204e-06
-3.6576449456997058e-06
-1.5696233853224126e-07
-2.7345834803785447e-11
-6.604376839670528e-08
-4.687391436545927e-07
-2.02140843561259e-06
-6.711656880094216e-06
-1.8750406019483346e-05
-4.613495144334065e-05
-0.00010276637833684967
-0.00021107234673310726
-0.00040497581244531704
-0.0007329374311333315
-0.0012607065272152971
-0.002073363495650726
-0.0032762400446205327
-0.004994367948208911
-0.007370226440635903
-0.010559717998531504
-0.014726480468949883
-0.020034816304324764
-0.026641664761421005
-0.03468814313241088
-0.044291228492428045
-0.05553614010070982
-0.0684699197807823
-0.08309660422111277
-0.09937425344622747
-0.11721395903532565
-0.13648081836261372
-0.1569967390607091
-0.17854483953568528
-0.20087514147630817
-0.22371121021275087
-0.24675738689346777
-0.26970626901690725
-0.29224612780056636
-0.3140679965475763
-0.3348722179979342
-0.35437429557555705
-0.3723099492378374
-0.3884393280424438
-0.40255037628873525
-0.4144613867942967
-0.4240228029258428
-0.4311183504211796
-0.4356655912603017
-0.43761599560311604
-0.4369546249979633
-0.43369951161331743
-0.42790080504478273
-0.4196397410788781
-0.4090274662772927
-0.3962037288488117
-0.3813354203923339
-0.36461492524436107
-0.3462582053892506
-0.3265025213445032
-0.3056036671005023
-0.28383258648433085
-0.2614712480845585
-0.23880769624818365
-0.21613027515220162
-0.1937211437632023
-0.17184935195052237
-0.1507639062735137
-0.1306873762294528
-0.111810628013832
-0.09428918107353379
-0.0782414503110844
-0.06374879911502852
-0.050856973468695714
-0.0395782374381362
-0.02989349959851945
-0.02175396105764999
-0.015082278160646492
-0.009773759165720852
-0.005698486641396165
-0.0027052857972239266
-0.000628072417151581
0.0007055886237771223
0.0014646567477361102
0.001805011308312163
0.0018616617285635633
0.0017439739655029105
0.0015343791618625299
0.0012902200714102325
0.0010477806239750195
0.0008272990153474237
0.0006378900308344757
0.0004816695960663448
0.00035680159694321937
0.0002595230778174847
0.0001853799450171944
0.0001299346588566018
8.91509597193981e-05
5.958353336109375e-05
3.844320975085264e-05
2.357844671133757e-05
1.3381779923261768e-05
6.4688850992104854e-06
2.7613456616673337e-07
-2.1726316501721734e-10
-1.7965968689986423e-07
-1.1649751513254367e-06
-4.709633706197095e-06
-1.4854271031152132e-05
-3.9743564146838133e-05
-9.418095869545131e-05
-0.000202894732693096
-0.00040434476224330645
-0.000754746385953127
-0.0013318566781416268
-0.0022379885734971103
-0.0036017107221374906
-0.0055777636350254085
-0.008344868733836289
-0.012101306382022893
-0.017058363176457782
-0.023431966130501535
-0.031433003120182136
-0.0412569537083647
-0.05307351080141851
-0.06701686059989714
-0.08317721419286975
-0.10159406369084033
-0.12225148720071759
-0.14507566880961964
-0.16993464855786702
-0.19664018588828855
-0.22495151647689174
-0.2545807103820635
-0.2851992988780221
-0.3164458249677307
-0.34793398329697756
-0.37926104302078045
-0.41001628606933
-0.43978923776291734
-0.46817751232722726
-0.49479413917245
-0.5192742745430088
-0.541281236028284
-0.5605118239573221
-0.5767009139795498
-0.5896253196428748
-0.5991069332189805
-0.6050151581750556
-0.6072686483318084
-0.6058363676137576
-0.6007379810734317
-0.592043583210203
-0.5798727641663144
-0.564393008862321
-0.5458174192686063
-0.5244017465442248
-0.500440718386788
-0.47426364814803945
-0.4462293164090565
-0.41672012304404854
-0.3861355189327899
-0.35488474301781386
-0.32337891572407557
-0.2920225793688033
-0.2612048368834801
-0.2312903272735345
-0.20261038872978493
-0.1754548848939929
-0.15006527671227002
-0.1266295667735249
-0.10527967563532312
-0.08609159625131854
-0.06908831835698157
-0.0542450812406996
-0.041496116616694334
-0.030741823172169516
-0.02185538062360772
-0.014688185404129871
-0.009074072648008741
-0.004832875807772324
-0.001774229350284114
0.00029752570396025075
0.0015769314961835963
0.002249801752417528
0.002485383866810888
0.0024296295523859182
0.0022008068388542916
0.0018881637516563016
0.0015536199375320602
0.0012357918727422892
0.0009552693543707039
0.0007200361535805673
0.0005301983119863231
0.00038159103960026407
0.0002682145888133351
0.00018369601656083225
0.00012206509447280819
7.810943308525717e-05
4.750019476703722e-05
2.6806437835613428e-05
1.3450049554632296e-05
5.477698495158354e-06
2.4259132054088716e-07
-9.095748836607008e-10
-4.5564020364577915e-07
-2.7326314664264526e-06
-1.04218760373439e-05
-3.1345506532276036e-05
-8.052491961616656e-05
-0.00018409815603948743
-0.00038400386402369537
-0.0007430388868877519
-0.0013497099122538464
-0.0023221790359635747
-0.0038105806044591993
-0.005997075867439873
-0.009093204880616261
-0.013334364512513224
-0.018971547046216942
-0.026260770840751388
-0.0354508818071901
-0.04677057159317894
-0.06041552926066829
-0.07653661686054632
-0.09522984771707393
-0.1165287708038736
-0.14039965145411407
-0.16673961432449735
-0.19537770241976501
-0.22607862403267953
-0.25854881912793326
-0.2924443830354489
-0.32738033780209586
-0.3629407354509956
-0.39868910527415574
-0.43417881040721823
-0.46896294846517067
-0.5026035088695859
-0.5346795788778468
-0.5647944659792079
-0.5925816725567453
-0.6177097172533604
-0.6398858452358867
-0.658858706350753
-0.6744201064782778
-0.6864059540908186
-0.6946965321700614
-0.6992162263481648
-0.6999328344443576
-0.6968565713744351
-0.6900388674556692
-0.6795710380053192
-0.6655828783328203
-0.6482412112420544
-0.62774838459426
-0.6043406851939427
-0.5782866035030716
-0.54988485320963
-0.5194620227447598
-0.487369715198006
-0.4539810218274732
-0.41968617589255114
-0.38488725156895826
-0.3499918114555006
-0.31540547046726997
-0.2815234386798545
-0.248721234239016
-0.21734491775320736
-0.18770137900938738
-0.1600493770819263
-0.13459215058953863
-0.11147242013179585
-0.09077045022002671
-0.07250550471084082
-0.05664055405702595
-0.04308957495340053
-0.0317263701911071
-0.02239367549016215
-0.014911494002096681
-0.009084075875010127
-0.004705582128296126
-0.001565004202179354
0.0005488648490248966
0.0018417946819390852
0.002507722515579
0.0027221327620206757
0.0026362093546735453
0.002372851472804797
0.002025323180634206
0.0016587077420225252
0.0013136966051109991
0.0010117922089071705
0.0007608696673595067
0.0005602118852433534
0.0004044849374520066
0.00028649967391588545
0.0001988907680518148
0.00013498632919588233
8.915527354832899e-05
5.6847896883600854e-05
3.438581912786114e-05
1.8085360810584305e-05
7.826960774539075e-07
-3.01305478814809e-09
-1.0857827264149094e-06
-6.079182663648045e-06
-2.198905125591432e-05
-6.329094925135547e-05
-0.0001565215299403224
-0.00034595302273731835
-0.0006998989276026698
-0.0013169405503954707
-0.0023311855498805126
-0.003915620353748982
-0.006282720000293503
-0.00968172282908692
-0.014392326692649327
-0.02071496231028129
-0.028958185835259692
-0.03942405032590397
-0.05239252377064644
-0.06810609955857036
-0.08675569510349923
-0.10846877502366832
-0.1333003983065959
-0.1612276110971488
-0.1921473241022085
-0.22587755637943432
-0.2621617171478244
-0.30067544632063037
-0.3410354458300624
-0.3828097032976907
-0.4255285279361549
-0.46869587370453214
-0.5118005039059645
-0.5543266426783946
-0.5957638521347192
-0.635615961611609
-0.6734089524513612
-0.7086977651396144
-0.7410720445396852
-0.7701608739281821
-0.7956365710351309
-0.8172176313495304
-0.8346709077814407
-0.8478131135207597
-0.856511728511596
-0.8606853809494597
-0.8603037648201631
-0.8553871435861584
-0.8460054792110776
-0.832277215037261
-0.8143677306090898
-0.792487476218346
-0.7668897844956987
-0.7378683455377488
-0.7057543206931892
-0.6709130583090249
-0.6337403628891922
-0.5946582581525759
-0.5541101758734711
-0.5125554982397451
-0.47046338451240227
-0.42830582645785703
-0.3865499056041112
-0.34564927396158807
-0.306034954074543
-0.2681056588834395
-0.23221796770922598
-0.19867685378004868
-0.16772721896631942
-0.13954721329521738
-0.11424414690001373
-0.09185368603051002
-0.0723427302459244
-0.05561591025782346
-0.041525104405176295
-0.029880882762308256
-0.020464507493791206
-0.013039162002534911
-0.007359465526701404
-0.00317894247919717
-0.00025574477738203935
0.0016426624066689225
0.0027350985410149373
0.003222122525594067
0.003281451919012395
0.0030639467906212314
0.0026909848963946473
0.0022539172244945356
0.0018158572309636754
0.0014155115230950314
0.0010723196759415488
0.0007919823629976605
0.0005715459724757975
0.0004034958157773928
0.0002786548688816656
0.00018797080670626728
0.00012343540840751711
7.840174920815512e-05
4.7410495723262686e-05
2.501283724234688e-05
1.0890615228237252e-06
-8.6715093540576e-09
-2.4456950438735155e-06
-1.2876065573630681e-05
-4.436224765745998e-05
-0.0001225558736790393
-0.00029240858363331943
-0.0006258821992062982
-0.0012297996252485241
-0.0022527169523144427
-0.003889598981833781
-0.006383185597995334
-0.010021237905405237
-0.015129303161141694
-0.02205916064172688
-0.03117362094997463
-0.042828770957893905
-0.0573550294244934
-0.07503847736538445
-0.09610385533592901
-0.12070040450448548
-0.14889141348681081
-0.18064796864531305
-0.2158470399782102
-0.25427370723637494
-0.29562706865454563
-0.339529191659719
-0.3855363632093605
-0.4331518698132027
-0.48183957051396953
-0.5310376039060073
-0.5801716761139569
-0.6286674956104769
-0.6759620406687602
-0.7215134572132227
-0.7648094831313182
-0.8053743768080817
-0.8427743920075823
-0.8766218890764914
-0.9065782055738741
-0.9323554300965428
-0.9537172336227591
-0.9704789153296045
-0.9825068164298482
-0.989717247622684
-0.9920750643710534
-0.989592010161334
-0.9823249316190601
-0.9703739510588761
-0.9538806617834593
-0.9330263891721107
-0.90803053626896
-0.8791490062365164
-0.8466726659191269
-0.8109257854030885
-0.772264358825419
-0.7310741832542064
-0.687768547318019
-0.6427853620859286
-0.5965835567097051
-0.5496385641043566
-0.502436741125549
-0.4554686067846695
-0.409220844108981
-0.3641670988329684
-0.3207577228758723
-0.2794087524652002
-0.24049057595277176
-0.20431692363198228
-0.1711349782909527
-0.14111752329952842
-0.11435806474344172
-0.09086973377988336
-0.07058846159534908
-0.05338043153922353
-0.039053221664905935
-0.02736948594154529
-0.01806164286246935
-0.010845979035379084
-0.005434878730023653
-0.0015464808502052337
0.001088246260227291
0.002720468318247777
0.0035797086968396073
0.003870690669271049
0.0037705606375733718
0.003426713375495627
0.00295573292278129
0.002443959968116582
0.0019499126504067359
0.0015083608079787011
0.0011354699211619322
0.0008342358269662559
0.0005994729578051524
0.0004218454567577452
0.000290731483640298
0.00019597087291415698
0.00012866917037456833
8.107470274818219e-05
4.4585044781276134e-05
1.9268925679928653e-06
-2.2541631936119408e-08
-5.232316719720601e-06
-2.605308488290941e-05
-8.580824583677437e-05
-0.0002281102818291947
-0.0005261002784769424
-0.001092210049039144
-0.0020870535410724535
-0.0037258872746250447
-0.0062811723067837805
-0.010080132883686758
-0.01549677934453517
-0.022938543059975534
-0.03282834106133766
-0.045583439339812785
-0.06159283871380811
-0.08119502906904275
-0.10465785202190507
-0.13216191838099262
-0.16378860675221518
-0.19951319270831627
-0.23920318915091232
-0.28262156961059215
-0.32943423117904197
-0.3792208479154703
-0.43148816802478024
-0.48568480579283285
-0.5412166516512408
-0.5974621472912283
-0.6537868245108583
-0.7095566666037114
-0.7641500041702081
-0.8169677927024828
-0.8674422311664599
-0.9150437669088974
-0.9592865932654124
-0.999732784878214
-1.035995235664409
-1.0677395697114436
-1.0946851901115693
-1.116605618451076
-1.133328261313685
-1.144733722056733
-1.1507547579536124
-1.1513749656731012
-1.1466272626029694
-1.1365922179327625
-1.1213962755704026
-1.1012099004936453
-1.0762456704312469
-1.0467563250673118
-1.0130327743984249
-0.9754020555563675
-0.934225212541892
-0.8898950553536394
-0.8428337338582019
-0.7934900380479585
-0.7423363116230765
-0.6898648427795986
-0.6365835785295468
-0.5830110017162355
-0.5296700187227215
-0.4770807364792344
-0.4257520650350787
-0.37617217072122855
-0.32879792676817815
-0.2840436618738772
-0.24226968617158282
-0.2037712638164545
-0.16876887615073322
-0.13740074002876101
-0.1097185625346158
-0.08568737542388907
-0.06518996729581766
-0.048035926561528226
-0.03397469017157825
-0.022711387350129363
-0.013923832731319979
-0.007278899737811922
-0.0024467559549338816
0.0008879868001548949
0.0030184325073622335
0.004210449135266783
0.004699810020666943
0.004690620369504409
0.0043545070770605165
0.0038304598156143218
0.003225537475769735
0.0026167527711234368
0.0020542967064505393
0.0015659583272195291
0.001162286891773305
0.0008418673679685718
0.0005960943058580148
0.00041300349738049514
0.0002799605182669427
0.00018517235296331263
0.00011783169319877707
6.543602918602258e-05
2.8246271523294766e-06
-5.4043001743764404e-08
-1.0674836216431971e-05
-5.050755105876012e-05
-0.00015951377298561683
-0.0004089540002659004
-0.0009132981825946177
-0.0018415780023184345
-0.003426176496531666
-0.005967126319336936
-0.009830405606352642
-0.01543943547789029
-0.023259860740506642
-0.033778573690086196
-0.04747866986321866
-0.06481249535560948
-0.08617510674700099
-0.11188032431509466
-0.1421411724013366
-0.17705595238991034
-0.21660057828453208
-0.26062720915379
-0.3088687039711453
-0.36094804440872535
-0.4163916361932758
-0.4746453042893357
-0.5350918205817982
-0.5970689153797254
-0.6598868939276847
-0.7228451763536349
-0.7852472794745814
-0.8464139436098336
-0.9056942657313969
-0.9624748265761192
-1.0161868930997877
-1.066311841471238
-1.1123849842017208
-1.1539980033001354
-1.1908001948317757
-1.2224987236680591
-1.2488580744287021
-1.2696988685753994
-1.2848962003580278
-1.2943776271044538
-1.2981209328300027
-1.2961517685143298
-1.2885412575365136
-1.275403640369973
-1.2568940183159754
-1.2332062413588911
-1.2045709697204945
-1.1712539219608937
-1.1335543041494756
-1.091803394407186
-1.0463632348082388
-0.99762535821551
-0.946009451397458
-0.8919618284760313
-0.8359535617687246
-0.7784780926339814
-0.7200481262156693
-0.6611916052425258
-0.6024465643820879
-0.5443546936759971
-0.4874534927526141
-0.4322669813139309
-0.3792950484029969
-0.329001672795582
-0.2818024249415189
-0.23805185674936782
-0.19803158064161014
-0.1619400048907064
-0.12988478840621556
-0.10187905719339882
-0.07784224099144718
-0.05760601561011829
-0.040925287676030035
-0.027493503334689445
-0.016960926327895746
-0.00895407055288866
-0.003094328125024335
0.000985926012507028
0.003630892312716563
0.005152944918219588
0.005827923619300563
0.005893291634780215
0.005548198823622748
0.004954676267547289
0.00423954748368985
0.0034969835715027045
0.0027918062011427244
0.0021636063390239463
0.001631557173577286
0.001199577710866271
0.0008613649065749247
0.00060481357535739
0.0004154563477330761
0.0002786476364350776
0.00017992580178954228
0.00010113899963037525
4.344361942143482e-06
-1.2106243129823588e-07
-2.0839917456034675e-05
-9.406391601455011e-05
-0.00028561661902372023
-0.0007075715027726109
-0.001532473479591931
-0.0030051200638422293
-0.0054493253340877875
-0.009267604124256857
-0.014932589017462354
-0.02297011521721433
-0.03393505837339435
-0.04838197878111182
-0.06683325819072626
-0.08974763877696157
-0.1174918960003501
-0.15031787342563008
-0.18834639418156382
-0.23155876921272178
-0.27979586338008483
-0.33276404500740037
-0.39004688504579493
-0.4511212058354316
-0.5153759946917459
-0.5821327626073038
-0.6506661014121485
-0.720223430140897
-0.790043183844636
-0.8593709544463748
-0.9274733217541599
-0.993649300910885
-1.057239475683772
-1.1176329862668515
-1.1742726007290138
-1.2266581279775157
-1.2743484348269596
-1.3169623177840981
-1.3541784578030869
-1.3857346585886057
-1.411426539772889
-1.4311058280246325
-1.4446783634288325
-1.4521019161053204
-1.4533838892539723
-1.4485789694951203
-1.4377867731455143
-1.4211495274170731
-1.3988498178395892
-1.3711084268083422
-1.3381822822923122
-1.3003625295780499
-1.257972731556591
-1.211367193509611
-1.160929395625861
-1.1070704996761194
-1.0502278747376599
-0.990863560402084
-0.929462555088893
-0.8665307835463264
-0.8025925643186296
-0.738187369391935
-0.6738656504116742
-0.6101835060185774
-0.5476959907528213
-0.4869489249287507
-0.4284691624075916
-0.3727534115867968
-0.32025588179129066
-0.27137523410659564
-0.2264415365506497
-0.1857041335069539
-0.14932150403703168
-0.1173542598567009
-0.08976237426556868
-0.06640749756671388
-0.04706078472803378
-0.03141606078837965
-0.01910745665464418
-0.009729991997352198
-0.0028611189277864824
0.0019188934363120725
0.005009593216712845
0.006777249362625386
0.007546470508712407
0.007596202106658527
0.0071592080740432405
0.006423928995851753
0.0055377256122482585
0.004610839249776484
0.00372075465581647
0.0029168879469183458
0.0022255803406936244
0.0016552894541365976
0.0012017267245139083
0.0008525851615391026
0.0005914687550011674
0.0004005699429519195
0.00026109300687643654
0.00014776917128764394
6.325233991053902e-06
-2.556769380252385e-07
-3.9048264871011554e-05
-0.00016869373107732745
-0.0004936002052167487
-0.0011836622826379495
-0.002489658353870693
-0.004753401983733643
-0.008409712027571273
-0.013978436687834026
-0.02204618541992181
-0.03323892341828162
-0.048187875050102566
-0.06749204541429239
-0.09168099333644773
-0.1211812801899756
-0.1562893769194603
-0.1971528939314319
-0.24376097936447766
-0.29594376723720084
-0.35337996418714196
-0.415611107909541
-0.4820607295688114
-0.5520565851994584
-0.6248542408362774
-0.6996605444354991
-0.775655835879346
-0.8520140835673707
-0.9279204535673848
-1.002586089812408
-1.0752600986778273
-1.1452388858676525
-1.2118730924749825
-1.2745724292487965
-1.3328087242296047
-1.3861174897509105
-1.4340982898935812
-1.476414156557013
-1.5127902670897724
-1.5430120627129134
-1.5669229569599858
-1.5844217579801434
-1.5954599078475702
-1.6000386254756038
-1.5982060265412585
-1.590054283086757
-1.575716876322031
-1.5553659878629715
-1.5292100666054893
-1.4974916001888623
-1.460485111177453
-1.4184953883697455
-1.3718559527024259
-1.3209277446721384
-1.2660980055789839
-1.207779307656869
-1.146408667740083
-1.0824466551001113
-1.0163763764149993
-0.9487021901304056
-0.8799479704145327
-0.8106547105967264
-0.7413772321914484
-0.6726797548423313
-0.6051300926593219
-0.539292281950242
-0.47571752208159823
-0.4149334306255154
-0.35743177734419107
-0.30365506418241106
-0.2539825479139589
-0.2087165372420742
-0.16807000642686595
-0.1321567135120636
-0.10098504747070781
-0.07445670995791909
-0.052371030388484785
-0.03443521153977388
-0.0202801438826528
-0.009480699853340664
-0.0015787598689011315
0.0038932154562654176
0.007390339268198666
0.009337133908165351
0.010114335984924831
0.010051099604739605
0.009422190625011423
0.008449156078631982
0.007304189809869967
0.006115494721275118
0.004973251695108579
0.003935680275984024
0.003034970605031669
0.0022830061128048134
0.0016767925133131319
0.0012034230462595295
0.0008442881483197552
0.0005779829330754241
0.0003804039968585777
0.0002166531291719795
9.231345973263529e-06
-5.124713546077488e-07
-7.0410301324951e-05
-0.00029196791999499367
-0.0008249051752265604
-0.0019177785763910442
-0.003922383691573199
-0.00729921879335319
-0.012611149470459332
-0.02050443943603893
-0.03167826205764676
-0.04684553569413734
-0.0666891175700529
-0.0918178786226925
-0.1227269602400594
-0.15976571187148364
-0.20311563727245602
-0.25277937234008857
-0.3085804901947969
-0.37017293372280446
-0.4370581968482892
-0.5086080316445596
-0.5840904152757602
-0.6626967021505131
-0.7435682323650566
-0.8258210892607967
-0.908568130927816
-0.9909378147313816
-1.0720896611322794
-1.151226450578056
-1.2276034153349438
-1.300534785728296
-1.3693980909557752
-1.4336366134932441
-1.4927603673911083
-1.5463459265680843
-1.5940353789076165
-1.635534632113324
-1.670611251960983
-1.6990919748752444
-1.720860005276235
-1.7358521835406406
-1.7440560918147983
-1.7455071511855613
-1.7402857537259255
-1.7285144656662763
-1.710355332550129
-1.686007313042088
-1.6557038645414586
-1.6197107004904812
-1.5783237358628464
-1.5318672333617933
-1.4806921578521284
-1.4251747398766945
-1.3657152400016124
-1.3027368933066936
-1.2366849966436524
-1.168026079464918
-1.0972470715280536
-1.0248543476726244
-0.9513724922228323
-0.877342585895301
-0.8033197806973535
-0.7298698995184263
-0.6575647852008396
-0.5869761384543412
-0.5186676349420589
-0.4531852076962917
-0.3910455266938981
-0.3327229021358994
-0.27863507309799407
-0.2291286007544066
-0.18446483732365554
-0.14480765076890853
-0.11021420639955895
-0.08063009265840262
-0.05588988803341504
-0.03572387544929693
-0.019771028224906114
-0.0075976715162282505
0.0012795313378987205
0.007368264626691408
0.01117530243052353
0.013183703002349506
0.013834451124266981
0.013513801733324704
0.012546659820017972
0.011195454829811992
0.009663331167406811
0.008100194466677379
0.006610223385484722
0.005259772252491965
0.004084992736617539
0.003098848470055034
0.0022974021768461844
0.0016653043139831195
0.001180303466573888
0.0008161848694629127
0.0005420612373784884
0.00031044700198844515
1.3170068796789291e-05
-9.799237260668152e-07
-0.0001224732479654311
-0.0004886622662024964
-0.0013355107677203608
-0.0030143537098521853
-0.006001912680643982
-0.010897070416496556
-0.018402270842917286
-0.029290420124550787
-0.04436047954808632
-0.06438660293802573
-0.09006642160036972
-0.12197388645174347
-0.1605210998989898
-0.20593208934946927
-0.2582298082458941
-0.31723608513745266
-0.38258298406866775
-0.45373320145959195
-0.5300067254408724
-0.6106109727442885
-0.6946719023615168
-0.7812640748724095
-0.8694381775159611
-0.9582450827487201
-1.0467559926893428
-1.1340786097780222
-1.219369553628857
-1.3018434203324798
-1.3807789686564071
-1.45552293791021
-1.5254919756508305
-1.590173098795362
-1.6491230443882083
-1.7019667974347437
-1.7483955201427341
-1.7881640535631185
-1.8210881204031466
-1.8470413263464651
-1.8659520351383116
-1.877800178050543
-1.8826140490943473
-1.880467131618952
-1.871474998151353
-1.8557923222933008
-1.8336100383676777
-1.8051526807984266
-1.7706759306882118
-1.7304643916893627
-1.6848296111198469
-1.6341083554518785
-1.5786611418259275
-1.5188710190002626
-1.4551425818010826
-1.3879011920963094
-1.3175923657254094
-1.2446812676390546
-1.169652235677375
-1.093008226144703
-1.0152700414840217
-0.9369751629394845
-0.8586759718421735
-0.7809371069518038
-0.7043316794286162
-0.6294360610212881
-0.5568229859337978
-0.4870527735849578
-0.4206625969886285
-0.3581538939298282
-0.29997824224666747
-0.24652228340237178
-0.198092556142919
-0.1549013593790546
-0.11705495637305659
-0.0845455117127122
-0.05724807113754761
-0.03492361655294072
-0.017228743372032992
-0.0037318408964215196
0.006065118439755947
0.01270083998448444
0.016727283787623896
0.018683127497563772
0.019070588290915166
0.01833756618953645
0.01686623767685321
0.014968251717236659
0.012885778752038305
0.010797027806242325
0.008824581200096061
0.007044990150378129
0.0054984193300385105
0.004197567579774217
0.003135478669507258